# Region type : faceZone nozzleOutletZone
# Faces  :     3013
# Area   :     6.30029605e-09
# Time         	sum(rhoPhi)	sum(phi)
3.4000217e-05  	-2.20667625e-03	3.09011739e-06
3.4000434e-05  	-2.20660862e-03	3.09001787e-06
3.4000651e-05  	-2.20653767e-03	3.08991849e-06
3.4000868e-05  	-2.20646694e-03	3.08981932e-06
3.4001085e-05  	-2.20639642e-03	3.08972036e-06
3.4001302e-05  	-2.20632621e-03	3.08962161e-06
3.4001519e-05  	-2.20625619e-03	3.08952312e-06
3.4001736e-05  	-2.20618633e-03	3.08942488e-06
3.4001953e-05  	-2.20611667e-03	3.08932692e-06
3.400217e-05   	-2.20604723e-03	3.08922923e-06
3.4002387e-05  	-2.20597798e-03	3.08913180e-06
3.4002604e-05  	-2.20590892e-03	3.08903460e-06
3.4002821e-05  	-2.20584003e-03	3.08893764e-06
3.4003038e-05  	-2.20577133e-03	3.08884092e-06
3.4003255e-05  	-2.20570281e-03	3.08874443e-06
3.4003472e-05  	-2.20563447e-03	3.08864819e-06
3.400369e-05   	-2.20556632e-03	3.08855219e-06
3.4003907e-05  	-2.20549836e-03	3.08845643e-06
3.4004124e-05  	-2.20543056e-03	3.08836091e-06
3.4004341e-05  	-2.20536296e-03	3.08826563e-06
3.4004558e-05  	-2.20529554e-03	3.08817060e-06
3.4004776e-05  	-2.20522831e-03	3.08807583e-06
3.4004993e-05  	-2.20516127e-03	3.08798130e-06
3.400521e-05   	-2.20509443e-03	3.08788704e-06
3.4005427e-05  	-2.20502776e-03	3.08779302e-06
3.4005645e-05  	-2.20496128e-03	3.08769924e-06
3.4005862e-05  	-2.20489496e-03	3.08760569e-06
3.4006079e-05  	-2.20482882e-03	3.08751238e-06
3.4006297e-05  	-2.20476286e-03	3.08741931e-06
3.4006514e-05  	-2.20469707e-03	3.08732648e-06
3.4006732e-05  	-2.20463150e-03	3.08723388e-06
3.4006949e-05  	-2.20456624e-03	3.08714152e-06
3.4007166e-05  	-2.20450125e-03	3.08704940e-06
3.4007384e-05  	-2.20443635e-03	3.08695747e-06
3.4007601e-05  	-2.20437166e-03	3.08686587e-06
3.4007819e-05  	-2.20430719e-03	3.08677461e-06
3.4008036e-05  	-2.20424287e-03	3.08668360e-06
3.4008254e-05  	-2.20417872e-03	3.08659297e-06
3.4008471e-05  	-2.20411472e-03	3.08650247e-06
3.4008689e-05  	-2.20405089e-03	3.08641233e-06
3.4008907e-05  	-2.20398720e-03	3.08632236e-06
3.4009124e-05  	-2.20392368e-03	3.08623270e-06
3.4009342e-05  	-2.20386032e-03	3.08614325e-06
3.4009559e-05  	-2.20379713e-03	3.08605407e-06
3.4009777e-05  	-2.20373410e-03	3.08596514e-06
3.4009995e-05  	-2.20367125e-03	3.08587646e-06
3.4010212e-05  	-2.20360857e-03	3.08578804e-06
3.401043e-05   	-2.20354608e-03	3.08569987e-06
3.4010648e-05  	-2.20348377e-03	3.08561195e-06
3.4010866e-05  	-2.20342166e-03	3.08552431e-06
3.4011083e-05  	-2.20335973e-03	3.08543692e-06
3.4011301e-05  	-2.20329799e-03	3.08534979e-06
3.4011519e-05  	-2.20323644e-03	3.08526291e-06
3.4011737e-05  	-2.20317508e-03	3.08517629e-06
3.4011954e-05  	-2.20311389e-03	3.08508991e-06
3.4012172e-05  	-2.20305287e-03	3.08500377e-06
3.401239e-05   	-2.20299205e-03	3.08491788e-06
3.4012608e-05  	-2.20293140e-03	3.08483223e-06
3.4012826e-05  	-2.20287092e-03	3.08474682e-06
3.4013044e-05  	-2.20281063e-03	3.08466165e-06
3.4013262e-05  	-2.20275050e-03	3.08457671e-06
3.401348e-05   	-2.20269055e-03	3.08449201e-06
3.4013698e-05  	-2.20263078e-03	3.08440755e-06
3.4013916e-05  	-2.20257118e-03	3.08432333e-06
3.4014134e-05  	-2.20251176e-03	3.08423934e-06
3.4014352e-05  	-2.20245250e-03	3.08415558e-06
3.401457e-05   	-2.20239342e-03	3.08407206e-06
3.4014788e-05  	-2.20233452e-03	3.08398878e-06
3.4015006e-05  	-2.20227578e-03	3.08390574e-06
3.4015224e-05  	-2.20221721e-03	3.08382297e-06
3.4015442e-05  	-2.20215882e-03	3.08374045e-06
3.401566e-05   	-2.20210060e-03	3.08365815e-06
3.4015878e-05  	-2.20204254e-03	3.08357610e-06
3.4016096e-05  	-2.20198467e-03	3.08349429e-06
3.4016314e-05  	-2.20192699e-03	3.08341273e-06
3.4016533e-05  	-2.20186948e-03	3.08333141e-06
3.4016751e-05  	-2.20181214e-03	3.08325034e-06
3.4016969e-05  	-2.20175498e-03	3.08316953e-06
3.4017187e-05  	-2.20169803e-03	3.08308909e-06
3.4017405e-05  	-2.20164127e-03	3.08300894e-06
3.4017624e-05  	-2.20158470e-03	3.08292905e-06
3.4017842e-05  	-2.20152829e-03	3.08284941e-06
3.401806e-05   	-2.20147206e-03	3.08277001e-06
3.4018279e-05  	-2.20141600e-03	3.08269086e-06
3.4018497e-05  	-2.20136011e-03	3.08261194e-06
3.4018715e-05  	-2.20130438e-03	3.08253326e-06
3.4018934e-05  	-2.20124880e-03	3.08245481e-06
3.4019152e-05  	-2.20119339e-03	3.08237659e-06
3.401937e-05   	-2.20113815e-03	3.08229860e-06
3.4019589e-05  	-2.20108306e-03	3.08222085e-06
3.4019807e-05  	-2.20102815e-03	3.08214335e-06
3.4020026e-05  	-2.20097342e-03	3.08206609e-06
3.4020244e-05  	-2.20091886e-03	3.08198908e-06
3.4020463e-05  	-2.20086448e-03	3.08191229e-06
3.4020681e-05  	-2.20081026e-03	3.08183574e-06
3.40209e-05    	-2.20075620e-03	3.08175940e-06
3.4021118e-05  	-2.20070231e-03	3.08168328e-06
3.4021337e-05  	-2.20064857e-03	3.08160735e-06
3.4021555e-05  	-2.20059497e-03	3.08153160e-06
3.4021774e-05  	-2.20054152e-03	3.08145603e-06
3.4021992e-05  	-2.20048820e-03	3.08138063e-06
3.4022211e-05  	-2.20043502e-03	3.08130541e-06
3.402243e-05   	-2.20038198e-03	3.08123036e-06
3.4022648e-05  	-2.20032908e-03	3.08115548e-06
3.4022867e-05  	-2.20027630e-03	3.08108076e-06
3.4023086e-05  	-2.20022367e-03	3.08100622e-06
3.4023304e-05  	-2.20017117e-03	3.08093184e-06
3.4023523e-05  	-2.20011881e-03	3.08085765e-06
3.4023742e-05  	-2.20006661e-03	3.08078364e-06
3.402396e-05   	-2.20001454e-03	3.08070982e-06
3.4024179e-05  	-2.19996263e-03	3.08063618e-06
3.4024398e-05  	-2.19991088e-03	3.08056275e-06
3.4024617e-05  	-2.19985928e-03	3.08048951e-06
3.4024836e-05  	-2.19980784e-03	3.08041649e-06
3.4025054e-05  	-2.19975656e-03	3.08034367e-06
3.4025273e-05  	-2.19970543e-03	3.08027103e-06
3.4025492e-05  	-2.19965447e-03	3.08019861e-06
3.4025711e-05  	-2.19960369e-03	3.08012639e-06
3.402593e-05   	-2.19955308e-03	3.08005437e-06
3.4026149e-05  	-2.19950262e-03	3.07998256e-06
3.4026367e-05  	-2.19945230e-03	3.07991092e-06
3.4026586e-05  	-2.19940213e-03	3.07983947e-06
3.4026805e-05  	-2.19935210e-03	3.07976820e-06
3.4027024e-05  	-2.19930220e-03	3.07969710e-06
3.4027243e-05  	-2.19925244e-03	3.07962619e-06
3.4027462e-05  	-2.19920283e-03	3.07955547e-06
3.4027681e-05  	-2.19915337e-03	3.07948494e-06
3.40279e-05    	-2.19910405e-03	3.07941460e-06
3.4028119e-05  	-2.19905486e-03	3.07934444e-06
3.4028338e-05  	-2.19900583e-03	3.07927448e-06
3.4028557e-05  	-2.19895692e-03	3.07920469e-06
3.4028776e-05  	-2.19890816e-03	3.07913508e-06
3.4028995e-05  	-2.19885952e-03	3.07906565e-06
3.4029215e-05  	-2.19881101e-03	3.07899638e-06
3.4029434e-05  	-2.19876263e-03	3.07892728e-06
3.4029653e-05  	-2.19871437e-03	3.07885835e-06
3.4029872e-05  	-2.19866623e-03	3.07878957e-06
3.4030091e-05  	-2.19861822e-03	3.07872096e-06
3.403031e-05   	-2.19857033e-03	3.07865250e-06
3.4030529e-05  	-2.19852256e-03	3.07858420e-06
3.4030748e-05  	-2.19847493e-03	3.07851607e-06
3.4030968e-05  	-2.19842744e-03	3.07844811e-06
3.4031187e-05  	-2.19838006e-03	3.07838033e-06
3.4031406e-05  	-2.19833283e-03	3.07831273e-06
3.4031625e-05  	-2.19828573e-03	3.07824535e-06
3.4031845e-05  	-2.19823877e-03	3.07817816e-06
3.4032064e-05  	-2.19819194e-03	3.07811116e-06
3.4032283e-05  	-2.19814523e-03	3.07804434e-06
3.4032502e-05  	-2.19809864e-03	3.07797769e-06
3.4032722e-05  	-2.19805217e-03	3.07791120e-06
3.4032941e-05  	-2.19800582e-03	3.07784488e-06
3.403316e-05   	-2.19795959e-03	3.07777873e-06
3.403338e-05   	-2.19791347e-03	3.07771276e-06
3.4033599e-05  	-2.19786748e-03	3.07764696e-06
3.4033818e-05  	-2.19782162e-03	3.07758134e-06
3.4034038e-05  	-2.19777587e-03	3.07751589e-06
3.4034257e-05  	-2.19773024e-03	3.07745061e-06
3.4034477e-05  	-2.19768473e-03	3.07738550e-06
3.4034696e-05  	-2.19763935e-03	3.07732057e-06
3.4034915e-05  	-2.19759408e-03	3.07725581e-06
3.4035135e-05  	-2.19754892e-03	3.07719121e-06
3.4035354e-05  	-2.19750386e-03	3.07712676e-06
3.4035574e-05  	-2.19745892e-03	3.07706247e-06
3.4035793e-05  	-2.19741409e-03	3.07699834e-06
3.4036013e-05  	-2.19736937e-03	3.07693438e-06
3.4036232e-05  	-2.19732477e-03	3.07687059e-06
3.4036452e-05  	-2.19728029e-03	3.07680698e-06
3.4036671e-05  	-2.19723593e-03	3.07674356e-06
3.4036891e-05  	-2.19719170e-03	3.07668031e-06
3.4037111e-05  	-2.19714760e-03	3.07661727e-06
3.403733e-05   	-2.19710362e-03	3.07655440e-06
3.403755e-05   	-2.19705977e-03	3.07649174e-06
3.4037769e-05  	-2.19701604e-03	3.07642925e-06
3.4037989e-05  	-2.19697243e-03	3.07636696e-06
3.4038208e-05  	-2.19692895e-03	3.07630482e-06
3.4038428e-05  	-2.19688558e-03	3.07624292e-06
3.4038648e-05  	-2.19684233e-03	3.07618114e-06
3.4038867e-05  	-2.19679922e-03	3.07611960e-06
3.4039087e-05  	-2.19675623e-03	3.07605824e-06
3.4039307e-05  	-2.19671337e-03	3.07599707e-06
3.4039526e-05  	-2.19667063e-03	3.07593609e-06
3.4039746e-05  	-2.19662804e-03	3.07587530e-06
3.4039966e-05  	-2.19658557e-03	3.07581469e-06
3.4040185e-05  	-2.19654320e-03	3.07575423e-06
3.4040405e-05  	-2.19650094e-03	3.07569393e-06
3.4040625e-05  	-2.19645877e-03	3.07563376e-06
3.4040845e-05  	-2.19641670e-03	3.07557373e-06
3.4041064e-05  	-2.19637471e-03	3.07551383e-06
3.4041284e-05  	-2.19633281e-03	3.07545406e-06
3.4041504e-05  	-2.19629101e-03	3.07539444e-06
3.4041724e-05  	-2.19624932e-03	3.07533496e-06
3.4041943e-05  	-2.19620773e-03	3.07527563e-06
3.4042163e-05  	-2.19616624e-03	3.07521644e-06
3.4042383e-05  	-2.19612486e-03	3.07515740e-06
3.4042603e-05  	-2.19608359e-03	3.07509850e-06
3.4042823e-05  	-2.19604244e-03	3.07503977e-06
3.4043043e-05  	-2.19600141e-03	3.07498120e-06
3.4043262e-05  	-2.19596050e-03	3.07492280e-06
3.4043482e-05  	-2.19591973e-03	3.07486458e-06
3.4043702e-05  	-2.19587909e-03	3.07480655e-06
3.4043922e-05  	-2.19583860e-03	3.07474871e-06
3.4044142e-05  	-2.19579826e-03	3.07469106e-06
3.4044362e-05  	-2.19575805e-03	3.07463360e-06
3.4044582e-05  	-2.19571799e-03	3.07457634e-06
3.4044802e-05  	-2.19567806e-03	3.07451926e-06
3.4045022e-05  	-2.19563828e-03	3.07446238e-06
3.4045242e-05  	-2.19559864e-03	3.07440572e-06
3.4045461e-05  	-2.19555914e-03	3.07434930e-06
3.4045681e-05  	-2.19551978e-03	3.07429307e-06
3.4045901e-05  	-2.19548055e-03	3.07423702e-06
3.4046121e-05  	-2.19544145e-03	3.07418114e-06
3.4046341e-05  	-2.19540248e-03	3.07412542e-06
3.4046561e-05  	-2.19536363e-03	3.07406986e-06
3.4046781e-05  	-2.19532491e-03	3.07401446e-06
3.4047001e-05  	-2.19528631e-03	3.07395923e-06
3.4047221e-05  	-2.19524785e-03	3.07390415e-06
3.4047441e-05  	-2.19520951e-03	3.07384922e-06
3.4047661e-05  	-2.19517128e-03	3.07379444e-06
3.4047882e-05  	-2.19513317e-03	3.07373980e-06
3.4048102e-05  	-2.19509519e-03	3.07368531e-06
3.4048322e-05  	-2.19505733e-03	3.07363096e-06
3.4048542e-05  	-2.19501968e-03	3.07357676e-06
3.4048762e-05  	-2.19498242e-03	3.07352272e-06
3.4048982e-05  	-2.19494524e-03	3.07346884e-06
3.4049202e-05  	-2.19490797e-03	3.07341506e-06
3.4049422e-05  	-2.19487079e-03	3.07336140e-06
3.4049642e-05  	-2.19483371e-03	3.07330786e-06
3.4049862e-05  	-2.19479674e-03	3.07325445e-06
3.4050082e-05  	-2.19475988e-03	3.07320117e-06
3.4050303e-05  	-2.19472312e-03	3.07314801e-06
3.4050523e-05  	-2.19468645e-03	3.07309497e-06
3.4050743e-05  	-2.19464988e-03	3.07304205e-06
3.4050963e-05  	-2.19461339e-03	3.07298925e-06
3.4051183e-05  	-2.19457700e-03	3.07293656e-06
3.4051404e-05  	-2.19454068e-03	3.07288397e-06
3.4051624e-05  	-2.19450444e-03	3.07283150e-06
3.4051844e-05  	-2.19446829e-03	3.07277914e-06
3.4052064e-05  	-2.19443221e-03	3.07272689e-06
3.4052284e-05  	-2.19439622e-03	3.07267475e-06
3.4052505e-05  	-2.19436031e-03	3.07262273e-06
3.4052725e-05  	-2.19432449e-03	3.07257083e-06
3.4052945e-05  	-2.19428877e-03	3.07251907e-06
3.4053165e-05  	-2.19425315e-03	3.07246744e-06
3.4053385e-05  	-2.19421764e-03	3.07241596e-06
3.4053606e-05  	-2.19418224e-03	3.07236465e-06
3.4053826e-05  	-2.19414697e-03	3.07231351e-06
3.4054046e-05  	-2.19411181e-03	3.07226254e-06
3.4054267e-05  	-2.19407679e-03	3.07221174e-06
3.4054487e-05  	-2.19404188e-03	3.07216113e-06
3.4054707e-05  	-2.19400711e-03	3.07211071e-06
3.4054928e-05  	-2.19397247e-03	3.07206046e-06
3.4055148e-05  	-2.19393795e-03	3.07201037e-06
3.4055368e-05  	-2.19390353e-03	3.07196043e-06
3.4055588e-05  	-2.19386921e-03	3.07191063e-06
3.4055809e-05  	-2.19383499e-03	3.07186095e-06
3.4056029e-05  	-2.19380085e-03	3.07181141e-06
3.405625e-05   	-2.19376681e-03	3.07176201e-06
3.405647e-05   	-2.19373288e-03	3.07171276e-06
3.405669e-05   	-2.19369905e-03	3.07166365e-06
3.4056911e-05  	-2.19366535e-03	3.07161469e-06
3.4057131e-05  	-2.19363178e-03	3.07156591e-06
3.4057351e-05  	-2.19359833e-03	3.07151729e-06
3.4057572e-05  	-2.19356498e-03	3.07146884e-06
3.4057792e-05  	-2.19353174e-03	3.07142056e-06
3.4058013e-05  	-2.19349861e-03	3.07137244e-06
3.4058233e-05  	-2.19346558e-03	3.07132448e-06
3.4058453e-05  	-2.19343264e-03	3.07127668e-06
3.4058674e-05  	-2.19339982e-03	3.07122906e-06
3.4058894e-05  	-2.19336712e-03	3.07118161e-06
3.4059115e-05  	-2.19333453e-03	3.07113435e-06
3.4059335e-05  	-2.19330205e-03	3.07108725e-06
3.4059556e-05  	-2.19326967e-03	3.07104033e-06
3.4059776e-05  	-2.19323741e-03	3.07099359e-06
3.4059997e-05  	-2.19320525e-03	3.07094702e-06
3.4060217e-05  	-2.19317321e-03	3.07090065e-06
3.4060438e-05  	-2.19314131e-03	3.07085449e-06
3.4060658e-05  	-2.19310955e-03	3.07080855e-06
3.4060878e-05  	-2.19307792e-03	3.07076282e-06
3.4061099e-05  	-2.19304642e-03	3.07071729e-06
3.406132e-05   	-2.19301505e-03	3.07067197e-06
3.406154e-05   	-2.19298383e-03	3.07062687e-06
3.4061761e-05  	-2.19295275e-03	3.07058198e-06
3.4061981e-05  	-2.19292180e-03	3.07053730e-06
3.4062202e-05  	-2.19289098e-03	3.07049281e-06
3.4062422e-05  	-2.19286028e-03	3.07044851e-06
3.4062643e-05  	-2.19282970e-03	3.07040440e-06
3.4062863e-05  	-2.19279923e-03	3.07036047e-06
3.4063084e-05  	-2.19276887e-03	3.07031669e-06
3.4063304e-05  	-2.19273861e-03	3.07027308e-06
3.4063525e-05  	-2.19270845e-03	3.07022962e-06
3.4063746e-05  	-2.19267837e-03	3.07018629e-06
3.4063966e-05  	-2.19264838e-03	3.07014308e-06
3.4064187e-05  	-2.19261849e-03	3.07010002e-06
3.4064407e-05  	-2.19258869e-03	3.07005709e-06
3.4064628e-05  	-2.19255901e-03	3.07001433e-06
3.4064848e-05  	-2.19252945e-03	3.06997173e-06
3.4065069e-05  	-2.19250002e-03	3.06992931e-06
3.406529e-05   	-2.19247072e-03	3.06988707e-06
3.406551e-05   	-2.19244155e-03	3.06984502e-06
3.4065731e-05  	-2.19241250e-03	3.06980314e-06
3.4065952e-05  	-2.19238358e-03	3.06976143e-06
3.4066172e-05  	-2.19235478e-03	3.06971990e-06
3.4066393e-05  	-2.19232610e-03	3.06967853e-06
3.4066614e-05  	-2.19229753e-03	3.06963733e-06
3.4066834e-05  	-2.19226908e-03	3.06959629e-06
3.4067055e-05  	-2.19224073e-03	3.06955538e-06
3.4067276e-05  	-2.19221248e-03	3.06951464e-06
3.4067496e-05  	-2.19218436e-03	3.06947404e-06
3.4067717e-05  	-2.19215635e-03	3.06943361e-06
3.4067938e-05  	-2.19212846e-03	3.06939334e-06
3.4068158e-05  	-2.19210069e-03	3.06935323e-06
3.4068379e-05  	-2.19207305e-03	3.06931326e-06
3.40686e-05    	-2.19204553e-03	3.06927346e-06
3.406882e-05   	-2.19201812e-03	3.06923381e-06
3.4069041e-05  	-2.19199083e-03	3.06919432e-06
3.4069262e-05  	-2.19196365e-03	3.06915499e-06
3.4069483e-05  	-2.19193660e-03	3.06911581e-06
3.4069703e-05  	-2.19190967e-03	3.06907681e-06
3.4069924e-05  	-2.19188286e-03	3.06903797e-06
3.4070145e-05  	-2.19185618e-03	3.06899931e-06
3.4070366e-05  	-2.19182963e-03	3.06896081e-06
3.4070586e-05  	-2.19180319e-03	3.06892246e-06
3.4070807e-05  	-2.19177685e-03	3.06888426e-06
3.4071028e-05  	-2.19175062e-03	3.06884621e-06
3.4071249e-05  	-2.19172449e-03	3.06880829e-06
3.407147e-05   	-2.19169846e-03	3.06877051e-06
3.407169e-05   	-2.19167252e-03	3.06873285e-06
3.4071911e-05  	-2.19164667e-03	3.06869531e-06
3.4072132e-05  	-2.19162090e-03	3.06865787e-06
3.4072353e-05  	-2.19159520e-03	3.06862053e-06
3.4072574e-05  	-2.19156958e-03	3.06858329e-06
3.4072794e-05  	-2.19154404e-03	3.06854616e-06
3.4073015e-05  	-2.19151857e-03	3.06850912e-06
3.4073236e-05  	-2.19149317e-03	3.06847218e-06
3.4073457e-05  	-2.19146785e-03	3.06843533e-06
3.4073678e-05  	-2.19144262e-03	3.06839860e-06
3.4073899e-05  	-2.19141747e-03	3.06836197e-06
3.4074119e-05  	-2.19139240e-03	3.06832546e-06
3.407434e-05   	-2.19136744e-03	3.06828908e-06
3.4074561e-05  	-2.19134260e-03	3.06825283e-06
3.4074782e-05  	-2.19131786e-03	3.06821672e-06
3.4075003e-05  	-2.19129323e-03	3.06818074e-06
3.4075224e-05  	-2.19126868e-03	3.06814487e-06
3.4075445e-05  	-2.19124422e-03	3.06810910e-06
3.4075666e-05  	-2.19121983e-03	3.06807344e-06
3.4075886e-05  	-2.19119552e-03	3.06803789e-06
3.4076107e-05  	-2.19117128e-03	3.06800244e-06
3.4076328e-05  	-2.19114711e-03	3.06796709e-06
3.4076549e-05  	-2.19112300e-03	3.06793183e-06
3.407677e-05   	-2.19109895e-03	3.06789664e-06
3.4076991e-05  	-2.19107495e-03	3.06786154e-06
3.4077212e-05  	-2.19105102e-03	3.06782655e-06
3.4077433e-05  	-2.19102717e-03	3.06779166e-06
3.4077654e-05  	-2.19100341e-03	3.06775690e-06
3.4077875e-05  	-2.19097974e-03	3.06772226e-06
3.4078096e-05  	-2.19095616e-03	3.06768775e-06
3.4078317e-05  	-2.19093267e-03	3.06765337e-06
3.4078538e-05  	-2.19090926e-03	3.06761909e-06
3.4078759e-05  	-2.19088592e-03	3.06758492e-06
3.407898e-05   	-2.19086264e-03	3.06755084e-06
3.4079201e-05  	-2.19083942e-03	3.06751686e-06
3.4079422e-05  	-2.19081628e-03	3.06748300e-06
3.4079643e-05  	-2.19079323e-03	3.06744926e-06
3.4079864e-05  	-2.19077026e-03	3.06741564e-06
3.4080085e-05  	-2.19074736e-03	3.06738213e-06
3.4080306e-05  	-2.19072454e-03	3.06734874e-06
3.4080527e-05  	-2.19070179e-03	3.06731546e-06
3.4080748e-05  	-2.19067913e-03	3.06728229e-06
3.4080969e-05  	-2.19065655e-03	3.06724926e-06
3.408119e-05   	-2.19063404e-03	3.06721634e-06
3.4081411e-05  	-2.19061161e-03	3.06718353e-06
3.4081632e-05  	-2.19058924e-03	3.06715082e-06
3.4081853e-05  	-2.19056694e-03	3.06711822e-06
3.4082074e-05  	-2.19054471e-03	3.06708573e-06
3.4082295e-05  	-2.19052254e-03	3.06705333e-06
3.4082516e-05  	-2.19050043e-03	3.06702103e-06
3.4082737e-05  	-2.19047838e-03	3.06698884e-06
3.4082958e-05  	-2.19045639e-03	3.06695675e-06
3.4083179e-05  	-2.19043446e-03	3.06692477e-06
3.40834e-05    	-2.19041261e-03	3.06689291e-06
3.4083621e-05  	-2.19039083e-03	3.06686116e-06
3.4083842e-05  	-2.19036912e-03	3.06682953e-06
3.4084063e-05  	-2.19034748e-03	3.06679800e-06
3.4084284e-05  	-2.19032592e-03	3.06676657e-06
3.4084505e-05  	-2.19030443e-03	3.06673525e-06
3.4084727e-05  	-2.19028301e-03	3.06670405e-06
3.4084948e-05  	-2.19026166e-03	3.06667298e-06
3.4085169e-05  	-2.19024037e-03	3.06664204e-06
3.408539e-05   	-2.19021914e-03	3.06661121e-06
3.4085611e-05  	-2.19019796e-03	3.06658050e-06
3.4085832e-05  	-2.19017683e-03	3.06654990e-06
3.4086053e-05  	-2.19015574e-03	3.06651941e-06
3.4086274e-05  	-2.19013471e-03	3.06648903e-06
3.4086495e-05  	-2.19011371e-03	3.06645878e-06
3.4086717e-05  	-2.19009276e-03	3.06642865e-06
3.4086938e-05  	-2.19007184e-03	3.06639863e-06
3.4087159e-05  	-2.19005095e-03	3.06636870e-06
3.408738e-05   	-2.19003009e-03	3.06633886e-06
3.4087601e-05  	-2.19000925e-03	3.06630912e-06
3.4087822e-05  	-2.18998845e-03	3.06627947e-06
3.4088043e-05  	-2.18996768e-03	3.06624994e-06
3.4088265e-05  	-2.18994693e-03	3.06622050e-06
3.4088486e-05  	-2.18992623e-03	3.06619116e-06
3.4088707e-05  	-2.18990556e-03	3.06616192e-06
3.4088928e-05  	-2.18988494e-03	3.06613279e-06
3.4089149e-05  	-2.18986436e-03	3.06610375e-06
3.4089371e-05  	-2.18984382e-03	3.06607483e-06
3.4089592e-05  	-2.18982335e-03	3.06604601e-06
3.4089813e-05  	-2.18980293e-03	3.06601731e-06
3.4090034e-05  	-2.18978258e-03	3.06598873e-06
3.4090255e-05  	-2.18976230e-03	3.06596026e-06
3.4090476e-05  	-2.18974209e-03	3.06593192e-06
3.4090698e-05  	-2.18972196e-03	3.06590370e-06
3.4090919e-05  	-2.18970191e-03	3.06587560e-06
3.409114e-05   	-2.18968195e-03	3.06584763e-06
3.4091361e-05  	-2.18966206e-03	3.06581978e-06
3.4091583e-05  	-2.18964225e-03	3.06579206e-06
3.4091804e-05  	-2.18962252e-03	3.06576446e-06
3.4092025e-05  	-2.18960285e-03	3.06573698e-06
3.4092246e-05  	-2.18958326e-03	3.06570961e-06
3.4092468e-05  	-2.18956374e-03	3.06568236e-06
3.4092689e-05  	-2.18954429e-03	3.06565522e-06
3.409291e-05   	-2.18952490e-03	3.06562818e-06
3.4093131e-05  	-2.18950557e-03	3.06560124e-06
3.4093353e-05  	-2.18948631e-03	3.06557440e-06
3.4093574e-05  	-2.18946710e-03	3.06554765e-06
3.4093795e-05  	-2.18944796e-03	3.06552100e-06
3.4094016e-05  	-2.18942888e-03	3.06549444e-06
3.4094238e-05  	-2.18940987e-03	3.06546797e-06
3.4094459e-05  	-2.18939091e-03	3.06544158e-06
3.409468e-05   	-2.18937201e-03	3.06541527e-06
3.4094902e-05  	-2.18935317e-03	3.06538903e-06
3.4095123e-05  	-2.18933438e-03	3.06536286e-06
3.4095344e-05  	-2.18931566e-03	3.06533676e-06
3.4095565e-05  	-2.18929700e-03	3.06531074e-06
3.4095787e-05  	-2.18927839e-03	3.06528477e-06
3.4096008e-05  	-2.18925985e-03	3.06525892e-06
3.4096229e-05  	-2.18924137e-03	3.06523322e-06
3.4096451e-05  	-2.18922296e-03	3.06520763e-06
3.4096672e-05  	-2.18920462e-03	3.06518205e-06
3.4096893e-05  	-2.18918634e-03	3.06515666e-06
3.4097115e-05  	-2.18916813e-03	3.06513133e-06
3.4097336e-05  	-2.18915000e-03	3.06510626e-06
3.4097557e-05  	-2.18913192e-03	3.06508121e-06
3.4097779e-05  	-2.18911390e-03	3.06505618e-06
3.4098e-05     	-2.18909592e-03	3.06503118e-06
3.4098221e-05  	-2.18907799e-03	3.06500621e-06
3.4098443e-05  	-2.18906010e-03	3.06498128e-06
3.4098664e-05  	-2.18904226e-03	3.06495639e-06
3.4098885e-05  	-2.18902446e-03	3.06493153e-06
3.4099107e-05  	-2.18900669e-03	3.06490669e-06
3.4099328e-05  	-2.18898896e-03	3.06488188e-06
3.4099549e-05  	-2.18897127e-03	3.06485709e-06
3.4099771e-05  	-2.18895360e-03	3.06483230e-06
3.4099992e-05  	-2.18893595e-03	3.06480752e-06
3.4100214e-05  	-2.18891833e-03	3.06478273e-06
3.4100435e-05  	-2.18890072e-03	3.06475792e-06
3.4100656e-05  	-2.18888313e-03	3.06473311e-06
3.4100878e-05  	-2.18886556e-03	3.06470831e-06
3.4101099e-05  	-2.18884803e-03	3.06468350e-06
3.410132e-05   	-2.18883054e-03	3.06465871e-06
3.4101542e-05  	-2.18881308e-03	3.06463392e-06
3.4101763e-05  	-2.18879566e-03	3.06460914e-06
3.4101985e-05  	-2.18877828e-03	3.06458436e-06
3.4102206e-05  	-2.18876092e-03	3.06455957e-06
3.4102427e-05  	-2.18874359e-03	3.06453477e-06
3.4102649e-05  	-2.18872629e-03	3.06450996e-06
3.410287e-05   	-2.18870902e-03	3.06448514e-06
3.4103092e-05  	-2.18869179e-03	3.06446033e-06
3.4103313e-05  	-2.18867459e-03	3.06443553e-06
3.4103535e-05  	-2.18865745e-03	3.06441074e-06
3.4103756e-05  	-2.18864034e-03	3.06438598e-06
3.4103977e-05  	-2.18862329e-03	3.06436124e-06
3.4104199e-05  	-2.18860629e-03	3.06433653e-06
3.410442e-05   	-2.18858932e-03	3.06431183e-06
3.4104642e-05  	-2.18857240e-03	3.06428715e-06
3.4104863e-05  	-2.18855552e-03	3.06426248e-06
3.4105085e-05  	-2.18853868e-03	3.06423781e-06
3.4105306e-05  	-2.18852187e-03	3.06421316e-06
3.4105527e-05  	-2.18850510e-03	3.06418852e-06
3.4105749e-05  	-2.18848837e-03	3.06416388e-06
3.410597e-05   	-2.18847166e-03	3.06413926e-06
3.4106192e-05  	-2.18845499e-03	3.06411465e-06
3.4106413e-05  	-2.18843836e-03	3.06409006e-06
3.4106635e-05  	-2.18842178e-03	3.06406551e-06
3.4106856e-05  	-2.18840525e-03	3.06404101e-06
3.4107078e-05  	-2.18838877e-03	3.06401656e-06
3.4107299e-05  	-2.18837236e-03	3.06399216e-06
3.4107521e-05  	-2.18835601e-03	3.06396782e-06
3.4107742e-05  	-2.18833972e-03	3.06394353e-06
3.4107964e-05  	-2.18832349e-03	3.06391931e-06
3.4108185e-05  	-2.18830732e-03	3.06389514e-06
3.4108407e-05  	-2.18829122e-03	3.06387103e-06
3.4108628e-05  	-2.18827518e-03	3.06384697e-06
3.410885e-05   	-2.18825919e-03	3.06382297e-06
3.4109071e-05  	-2.18824325e-03	3.06379902e-06
3.4109293e-05  	-2.18822737e-03	3.06377512e-06
3.4109514e-05  	-2.18821153e-03	3.06375128e-06
3.4109736e-05  	-2.18819572e-03	3.06372749e-06
3.4109957e-05  	-2.18817995e-03	3.06370374e-06
3.4110179e-05  	-2.18816422e-03	3.06368003e-06
3.41104e-05    	-2.18814853e-03	3.06365635e-06
3.4110622e-05  	-2.18813292e-03	3.06363273e-06
3.4110843e-05  	-2.18811736e-03	3.06360916e-06
3.4111065e-05  	-2.18810185e-03	3.06358565e-06
3.4111286e-05  	-2.18808638e-03	3.06356218e-06
3.4111508e-05  	-2.18807095e-03	3.06353877e-06
3.4111729e-05  	-2.18805556e-03	3.06351540e-06
3.4111951e-05  	-2.18804022e-03	3.06349209e-06
3.4112172e-05  	-2.18802493e-03	3.06346883e-06
3.4112394e-05  	-2.18800970e-03	3.06344565e-06
3.4112616e-05  	-2.18799454e-03	3.06342254e-06
3.4112837e-05  	-2.18797944e-03	3.06339952e-06
3.4113059e-05  	-2.18796439e-03	3.06337656e-06
3.411328e-05   	-2.18794940e-03	3.06335367e-06
3.4113502e-05  	-2.18793458e-03	3.06333086e-06
3.4113723e-05  	-2.18791986e-03	3.06330813e-06
3.4113945e-05  	-2.18790508e-03	3.06328546e-06
3.4114167e-05  	-2.18789043e-03	3.06326291e-06
3.4114388e-05  	-2.18787579e-03	3.06324047e-06
3.411461e-05   	-2.18786126e-03	3.06321810e-06
3.4114831e-05  	-2.18784685e-03	3.06319582e-06
3.4115053e-05  	-2.18783238e-03	3.06317365e-06
3.4115274e-05  	-2.18781804e-03	3.06315158e-06
3.4115496e-05  	-2.18780367e-03	3.06312957e-06
3.4115718e-05  	-2.18778942e-03	3.06310769e-06
3.4115939e-05  	-2.18777517e-03	3.06308589e-06
3.4116161e-05  	-2.18776103e-03	3.06306416e-06
3.4116382e-05  	-2.18774689e-03	3.06304250e-06
3.4116604e-05  	-2.18773286e-03	3.06302093e-06
3.4116826e-05  	-2.18771882e-03	3.06299948e-06
3.4117047e-05  	-2.18770489e-03	3.06297811e-06
3.4117269e-05  	-2.18769097e-03	3.06295681e-06
3.411749e-05   	-2.18767715e-03	3.06293561e-06
3.4117712e-05  	-2.18766334e-03	3.06291453e-06
3.4117934e-05  	-2.18764965e-03	3.06289354e-06
3.4118155e-05  	-2.18763595e-03	3.06287262e-06
3.4118377e-05  	-2.18762237e-03	3.06285180e-06
3.4118599e-05  	-2.18760879e-03	3.06283110e-06
3.411882e-05   	-2.18759518e-03	3.06281045e-06
3.4119042e-05  	-2.18758175e-03	3.06278988e-06
3.4119263e-05  	-2.18756832e-03	3.06276943e-06
3.4119485e-05  	-2.18755502e-03	3.06274909e-06
3.4119707e-05  	-2.18754170e-03	3.06272883e-06
3.4119928e-05  	-2.18752851e-03	3.06270866e-06
3.412015e-05   	-2.18751532e-03	3.06268860e-06
3.4120372e-05  	-2.18750213e-03	3.06266867e-06
3.4120593e-05  	-2.18748912e-03	3.06264881e-06
3.4120815e-05  	-2.18747609e-03	3.06262903e-06
3.4121037e-05  	-2.18746313e-03	3.06260934e-06
3.4121258e-05  	-2.18745021e-03	3.06258975e-06
3.412148e-05   	-2.18743733e-03	3.06257024e-06
3.4121702e-05  	-2.18742458e-03	3.06255080e-06
3.4121923e-05  	-2.18741184e-03	3.06253146e-06
3.4122145e-05  	-2.18739910e-03	3.06251225e-06
3.4122367e-05  	-2.18738650e-03	3.06249312e-06
3.4122588e-05  	-2.18737393e-03	3.06247406e-06
3.412281e-05   	-2.18736142e-03	3.06245511e-06
3.4123032e-05  	-2.18734893e-03	3.06243629e-06
3.4123254e-05  	-2.18733662e-03	3.06241757e-06
3.4123475e-05  	-2.18732432e-03	3.06239896e-06
3.4123697e-05  	-2.18731203e-03	3.06238044e-06
3.4123919e-05  	-2.18729994e-03	3.06236205e-06
3.412414e-05   	-2.18728786e-03	3.06234381e-06
3.4124362e-05  	-2.18727580e-03	3.06232567e-06
3.4124584e-05  	-2.18726380e-03	3.06230763e-06
3.4124805e-05  	-2.18725201e-03	3.06228970e-06
3.4125027e-05  	-2.18724025e-03	3.06227190e-06
3.4125249e-05  	-2.18722851e-03	3.06225426e-06
3.4125471e-05  	-2.18721685e-03	3.06223673e-06
3.4125692e-05  	-2.18720540e-03	3.06221931e-06
3.4125914e-05  	-2.18719398e-03	3.06220202e-06
3.4126136e-05  	-2.18718258e-03	3.06218488e-06
3.4126358e-05  	-2.18717126e-03	3.06216784e-06
3.4126579e-05  	-2.18716015e-03	3.06215091e-06
3.4126801e-05  	-2.18714904e-03	3.06213407e-06
3.4127023e-05  	-2.18713796e-03	3.06211732e-06
3.4127244e-05  	-2.18712694e-03	3.06210067e-06
3.4127466e-05  	-2.18711614e-03	3.06208416e-06
3.4127688e-05  	-2.18710540e-03	3.06206782e-06
3.412791e-05   	-2.18709468e-03	3.06205160e-06
3.4128132e-05  	-2.18708406e-03	3.06203549e-06
3.4128353e-05  	-2.18707367e-03	3.06201952e-06
3.4128575e-05  	-2.18706331e-03	3.06200367e-06
3.4128797e-05  	-2.18705299e-03	3.06198794e-06
3.4129019e-05  	-2.18704278e-03	3.06197235e-06
3.412924e-05   	-2.18703279e-03	3.06195693e-06
3.4129462e-05  	-2.18702283e-03	3.06194163e-06
3.4129684e-05  	-2.18701304e-03	3.06192642e-06
3.4129906e-05  	-2.18700337e-03	3.06191130e-06
3.4130128e-05  	-2.18699401e-03	3.06189627e-06
3.4130349e-05  	-2.18698505e-03	3.06188135e-06
3.4130571e-05  	-2.18697622e-03	3.06186653e-06
3.4130793e-05  	-2.18696797e-03	3.06185191e-06
3.4131015e-05  	-2.18695955e-03	3.06183746e-06
3.4131236e-05  	-2.18695133e-03	3.06182316e-06
3.4131458e-05  	-2.18694301e-03	3.06180901e-06
3.413168e-05   	-2.18693470e-03	3.06179497e-06
3.4131902e-05  	-2.18692675e-03	3.06178108e-06
3.4132124e-05  	-2.18691901e-03	3.06176736e-06
3.4132346e-05  	-2.18691110e-03	3.06175376e-06
3.4132567e-05  	-2.18690343e-03	3.06174032e-06
3.4132789e-05  	-2.18689600e-03	3.06172711e-06
3.4133011e-05  	-2.18688823e-03	3.06171400e-06
3.4133233e-05  	-2.18688091e-03	3.06170103e-06
3.4133455e-05  	-2.18687381e-03	3.06168822e-06
3.4133677e-05  	-2.18686629e-03	3.06167548e-06
3.4133898e-05  	-2.18685921e-03	3.06166286e-06
3.413412e-05   	-2.18685234e-03	3.06165040e-06
3.4134342e-05  	-2.18684518e-03	3.06163802e-06
3.4134564e-05  	-2.18683874e-03	3.06162579e-06
3.4134786e-05  	-2.18683215e-03	3.06161369e-06
3.4135008e-05  	-2.18682553e-03	3.06160171e-06
3.413523e-05   	-2.18681870e-03	3.06158979e-06
3.4135451e-05  	-2.18681208e-03	3.06157799e-06
3.4135673e-05  	-2.18680568e-03	3.06156637e-06
3.4135895e-05  	-2.18679907e-03	3.06155484e-06
3.4136117e-05  	-2.18679270e-03	3.06154344e-06
3.4136339e-05  	-2.18678655e-03	3.06153218e-06
3.4136561e-05  	-2.18678049e-03	3.06152103e-06
3.4136783e-05  	-2.18677405e-03	3.06151002e-06
3.4137005e-05  	-2.18676800e-03	3.06149914e-06
3.4137226e-05  	-2.18676219e-03	3.06148841e-06
3.4137448e-05  	-2.18675642e-03	3.06147783e-06
3.413767e-05   	-2.18675068e-03	3.06146739e-06
3.4137892e-05  	-2.18674520e-03	3.06145711e-06
3.4138114e-05  	-2.18673976e-03	3.06144699e-06
3.4138336e-05  	-2.18673452e-03	3.06143704e-06
3.4138558e-05  	-2.18672933e-03	3.06142726e-06
3.413878e-05   	-2.18672417e-03	3.06141763e-06
3.4139002e-05  	-2.18671929e-03	3.06140816e-06
3.4139224e-05  	-2.18671444e-03	3.06139886e-06
3.4139446e-05  	-2.18670979e-03	3.06138974e-06
3.4139667e-05  	-2.18670520e-03	3.06138086e-06
3.4139889e-05  	-2.18670068e-03	3.06137216e-06