# time                
# Time                	cpu                   	clock                 	cpu/step              	clock/step            
0                     	1.100000000000000e-01	0	0.000000000000000e+00	0.000000000000000e+00
1.19999904000077e-10  	5.330000000000000e+00	5	5.220000000000000e+00	5.000000000000000e+00
2.63999616000445e-10  	1.039000000000000e+01	10	5.060000000000000e+00	5.000000000000000e+00
4.36799071335788e-10  	1.542000000000000e+01	15	5.029999999999999e+00	5.000000000000000e+00
6.4415820274799e-10   	2.043000000000000e+01	20	5.010000000000000e+00	5.000000000000000e+00
8.92988954051989e-10  	2.406000000000000e+01	24	3.629999999999999e+00	4.000000000000000e+00
1.19158555841406e-09  	2.906000000000000e+01	29	5.000000000000000e+00	5.000000000000000e+00
1.54990019973483e-09  	3.409000000000000e+01	34	5.030000000000005e+00	5.000000000000000e+00
1.97987715304205e-09  	3.920000000000000e+01	39	5.109999999999999e+00	5.000000000000000e+00
2.49584683469715e-09  	4.432000000000000e+01	44	5.119999999999997e+00	5.000000000000000e+00
3.11500725792346e-09  	4.946000000000000e+01	49	5.140000000000001e+00	5.000000000000000e+00
3.85799792561604e-09  	5.456000000000000e+01	54	5.100000000000001e+00	5.000000000000000e+00
4.74957877730543e-09  	5.973000000000000e+01	59	5.169999999999995e+00	5.000000000000000e+00
5.81947007569327e-09  	6.486000000000000e+01	64	5.130000000000003e+00	5.000000000000000e+00
7.10332314980061e-09  	7.003000000000000e+01	70	5.170000000000002e+00	6.000000000000000e+00
8.6439270582337e-09   	7.551000000000001e+01	75	5.480000000000004e+00	5.000000000000000e+00
1.04926403548289e-08  	8.064000000000000e+01	80	5.129999999999995e+00	5.000000000000000e+00
1.27110799039868e-08  	8.588000000000000e+01	86	5.239999999999995e+00	6.000000000000000e+00
1.53731482990905e-08  	9.101000000000001e+01	91	5.130000000000010e+00	5.000000000000000e+00
1.85675453231065e-08  	9.628000000000000e+01	96	5.269999999999996e+00	5.000000000000000e+00
2.24007482696493e-08  	1.015700000000000e+02	101	5.289999999999992e+00	5.000000000000000e+00
2.70003801822243e-08  	1.068800000000000e+02	106	5.310000000000002e+00	5.000000000000000e+00
3.25197861127614e-08  	1.121200000000000e+02	112	5.240000000000009e+00	6.000000000000000e+00
3.91427806943095e-08  	1.173300000000000e+02	117	5.209999999999994e+00	5.000000000000000e+00
4.7090058259845e-08   	1.225800000000000e+02	122	5.250000000000000e+00	5.000000000000000e+00
5.66266396873558e-08  	1.279200000000000e+02	128	5.340000000000003e+00	6.000000000000000e+00
6.8069663887071e-08   	1.333600000000000e+02	133	5.440000000000012e+00	5.000000000000000e+00
8.18003495611728e-08  	1.388800000000000e+02	139	5.519999999999982e+00	6.000000000000000e+00
9.8274908448302e-08   	1.443800000000000e+02	144	5.500000000000000e+00	5.000000000000000e+00
1.18041771347303e-07  	1.499300000000000e+02	150	5.550000000000011e+00	6.000000000000000e+00
1.41761068005734e-07  	1.554500000000000e+02	155	5.519999999999982e+00	5.000000000000000e+00
1.7021881634771e-07   	1.610600000000000e+02	161	5.610000000000014e+00	6.000000000000000e+00
2.04360328380423e-07  	1.669600000000000e+02	167	5.900000000000006e+00	6.000000000000000e+00
2.45327339739873e-07  	1.729500000000000e+02	173	5.989999999999981e+00	6.000000000000000e+00
2.94467572577439e-07  	1.788800000000000e+02	179	5.930000000000007e+00	6.000000000000000e+00
3.53430040009386e-07  	1.847900000000000e+02	184	5.909999999999997e+00	5.000000000000000e+00
4.24151523302496e-07  	1.884100000000000e+02	188	3.620000000000005e+00	4.000000000000000e+00
5.07828706896359e-07  	1.908000000000000e+02	190	2.390000000000015e+00	2.000000000000000e+00
6.02583155746934e-07  	1.933100000000000e+02	193	2.509999999999991e+00	3.000000000000000e+00
6.98526608299302e-07  	1.957700000000000e+02	195	2.460000000000008e+00	2.000000000000000e+00
7.83472265606146e-07  	1.980100000000000e+02	198	2.239999999999981e+00	3.000000000000000e+00
8.60803931805985e-07  	2.002200000000000e+02	200	2.210000000000008e+00	2.000000000000000e+00
9.32436298907281e-07  	2.022200000000000e+02	202	2.000000000000000e+00	2.000000000000000e+00
9.99555244504228e-07  	2.041700000000000e+02	204	1.949999999999989e+00	2.000000000000000e+00
1.06309853382098e-06  	2.060700000000000e+02	206	1.900000000000006e+00	2.000000000000000e+00
1.12364743312708e-06  	2.080000000000000e+02	208	1.930000000000007e+00	2.000000000000000e+00
1.18170753445819e-06  	2.098700000000000e+02	209	1.870000000000005e+00	1.000000000000000e+00
1.2376635324568e-06   	2.117400000000000e+02	211	1.870000000000005e+00	2.000000000000000e+00
1.29177988120614e-06  	2.135100000000000e+02	213	1.769999999999982e+00	2.000000000000000e+00
1.34428425360975e-06  	2.152300000000000e+02	215	1.719999999999999e+00	2.000000000000000e+00
1.39540120477368e-06  	2.169500000000000e+02	217	1.719999999999999e+00	2.000000000000000e+00
1.44525186139412e-06  	2.186300000000000e+02	218	1.680000000000007e+00	1.000000000000000e+00
1.49399308203636e-06  	2.203700000000000e+02	220	1.740000000000009e+00	2.000000000000000e+00
1.54174199474502e-06  	2.220500000000000e+02	222	1.680000000000007e+00	2.000000000000000e+00
1.58858226972373e-06  	2.236800000000000e+02	223	1.629999999999995e+00	1.000000000000000e+00
1.63461193189879e-06  	2.253800000000000e+02	225	1.699999999999989e+00	2.000000000000000e+00
1.67985820055937e-06  	2.270300000000000e+02	227	1.650000000000006e+00	2.000000000000000e+00
1.72438725028738e-06  	2.286500000000000e+02	228	1.620000000000005e+00	1.000000000000000e+00
1.76820161174512e-06  	2.302300000000000e+02	230	1.579999999999984e+00	2.000000000000000e+00
1.81132356011573e-06  	2.318200000000000e+02	231	1.590000000000003e+00	1.000000000000000e+00
1.85381108778336e-06  	2.334600000000000e+02	233	1.640000000000015e+00	2.000000000000000e+00
1.89566447324699e-06  	2.350400000000000e+02	235	1.579999999999984e+00	2.000000000000000e+00
1.93690210902957e-06  	2.365900000000000e+02	236	1.550000000000011e+00	1.000000000000000e+00
1.97752476764223e-06  	2.381100000000000e+02	238	1.520000000000010e+00	2.000000000000000e+00
2.01755027814952e-06  	2.396300000000000e+02	239	1.519999999999982e+00	1.000000000000000e+00
2.05697983538166e-06  	2.411500000000000e+02	241	1.520000000000010e+00	2.000000000000000e+00
2.09579989886347e-06  	2.427500000000000e+02	242	1.599999999999994e+00	1.000000000000000e+00
2.13401387236118e-06  	2.443800000000000e+02	244	1.629999999999995e+00	2.000000000000000e+00
2.17161125466147e-06  	2.459200000000000e+02	246	1.539999999999992e+00	2.000000000000000e+00
2.20861140169072e-06  	2.474500000000000e+02	247	1.530000000000001e+00	1.000000000000000e+00
2.24500566614859e-06  	2.489700000000000e+02	249	1.520000000000010e+00	2.000000000000000e+00
2.28081335638077e-06  	2.504400000000000e+02	250	1.469999999999999e+00	1.000000000000000e+00
2.31604017204177e-06  	2.519100000000000e+02	252	1.469999999999999e+00	2.000000000000000e+00
2.35069216204814e-06  	2.533500000000000e+02	253	1.439999999999998e+00	1.000000000000000e+00
2.38477569008931e-06  	2.547800000000000e+02	254	1.430000000000007e+00	1.000000000000000e+00
2.4182974017342e-06   	2.562300000000000e+02	256	1.450000000000017e+00	2.000000000000000e+00
2.45127533434598e-06  	2.576700000000000e+02	257	1.439999999999998e+00	1.000000000000000e+00
2.48372667322345e-06  	2.590800000000000e+02	259	1.409999999999968e+00	2.000000000000000e+00
2.51566780434915e-06  	2.605000000000000e+02	260	1.420000000000016e+00	1.000000000000000e+00
2.54711436312194e-06  	2.619300000000000e+02	262	1.430000000000007e+00	2.000000000000000e+00
2.5780812794349e-06   	2.633300000000000e+02	263	1.399999999999977e+00	1.000000000000000e+00
2.60858281942255e-06  	2.647000000000000e+02	264	1.370000000000005e+00	1.000000000000000e+00
2.63863262416818e-06  	2.660900000000000e+02	266	1.389999999999986e+00	2.000000000000000e+00
2.66825275418821e-06  	2.675000000000000e+02	267	1.410000000000025e+00	1.000000000000000e+00
2.69746396284542e-06  	2.688500000000000e+02	268	1.350000000000023e+00	1.000000000000000e+00
2.72418074923673e-06  	2.701900000000000e+02	270	1.339999999999975e+00	2.000000000000000e+00
2.74892027600447e-06  	2.714800000000000e+02	271	1.290000000000020e+00	1.000000000000000e+00
2.77208080939909e-06  	2.727600000000000e+02	272	1.279999999999973e+00	1.000000000000000e+00
2.79395435702352e-06  	2.739700000000000e+02	274	1.210000000000036e+00	2.000000000000000e+00
2.81480060314039e-06  	2.751900000000000e+02	275	1.219999999999970e+00	1.000000000000000e+00
2.83471968479582e-06  	2.763800000000000e+02	276	1.189999999999998e+00	1.000000000000000e+00
2.85385424177007e-06  	2.775900000000000e+02	277	1.209999999999980e+00	1.000000000000000e+00
2.87230204764896e-06  	2.787700000000000e+02	278	1.180000000000007e+00	1.000000000000000e+00
2.89015968654441e-06  	2.799500000000000e+02	280	1.180000000000007e+00	2.000000000000000e+00
2.90751622636808e-06  	2.811100000000000e+02	281	1.160000000000025e+00	1.000000000000000e+00
2.9244312932276e-06   	2.823000000000000e+02	282	1.189999999999998e+00	1.000000000000000e+00
2.94096323612725e-06  	2.834900000000000e+02	283	1.189999999999998e+00	1.000000000000000e+00
2.95716133972603e-06  	2.846200000000000e+02	284	1.129999999999995e+00	1.000000000000000e+00
2.97307782958338e-06  	2.857300000000000e+02	285	1.110000000000014e+00	1.000000000000000e+00
2.98872733315925e-06  	2.868600000000000e+02	286	1.129999999999995e+00	1.000000000000000e+00
3.00396151542478e-06  	2.879900000000000e+02	288	1.129999999999995e+00	2.000000000000000e+00
3.01882680867912e-06  	2.891200000000000e+02	289	1.129999999999995e+00	1.000000000000000e+00
3.033360177957e-06    	2.902400000000000e+02	290	1.120000000000005e+00	1.000000000000000e+00
3.04759694786187e-06  	2.913600000000000e+02	291	1.120000000000005e+00	1.000000000000000e+00
3.06155697709904e-06  	2.924500000000000e+02	292	1.089999999999975e+00	1.000000000000000e+00
3.07527015336483e-06  	2.935300000000000e+02	293	1.079999999999984e+00	1.000000000000000e+00
3.08876190306509e-06  	2.946000000000000e+02	294	1.070000000000050e+00	1.000000000000000e+00
3.10205197960059e-06  	2.956900000000000e+02	295	1.089999999999975e+00	1.000000000000000e+00
3.11515692253005e-06  	2.967600000000000e+02	296	1.069999999999993e+00	1.000000000000000e+00
3.12809042180618e-06  	2.978200000000000e+02	297	1.060000000000002e+00	1.000000000000000e+00
3.14086698598162e-06  	2.988600000000000e+02	298	1.040000000000020e+00	1.000000000000000e+00
3.15350518183418e-06  	2.999300000000000e+02	300	1.069999999999993e+00	2.000000000000000e+00
3.16601764886495e-06  	3.010100000000000e+02	301	1.079999999999984e+00	1.000000000000000e+00
3.17842113065708e-06  	3.020800000000000e+02	302	1.069999999999993e+00	1.000000000000000e+00
3.19072843698342e-06  	3.031100000000000e+02	303	1.030000000000030e+00	1.000000000000000e+00
3.20295182985754e-06  	3.041700000000000e+02	304	1.060000000000002e+00	1.000000000000000e+00
3.21510157859234e-06  	3.052100000000000e+02	305	1.039999999999964e+00	1.000000000000000e+00
3.22716801649552e-06  	3.062500000000000e+02	306	1.040000000000020e+00	1.000000000000000e+00
3.2391270911351e-06   	3.072800000000000e+02	307	1.029999999999973e+00	1.000000000000000e+00
3.25098504124648e-06  	3.083100000000000e+02	308	1.030000000000030e+00	1.000000000000000e+00
3.26274640946418e-06  	3.093500000000000e+02	309	1.040000000000020e+00	1.000000000000000e+00
3.27441696726253e-06  	3.103600000000000e+02	310	1.009999999999991e+00	1.000000000000000e+00
3.28600364467421e-06  	3.114000000000000e+02	311	1.039999999999964e+00	1.000000000000000e+00
3.29751447499501e-06  	3.124200000000000e+02	312	1.020000000000039e+00	1.000000000000000e+00
3.30894638012859e-06  	3.134500000000000e+02	313	1.029999999999973e+00	1.000000000000000e+00
3.32030976638078e-06  	3.144700000000000e+02	314	1.020000000000039e+00	1.000000000000000e+00
3.33161336631456e-06  	3.154800000000000e+02	315	1.009999999999991e+00	1.000000000000000e+00
3.34286565203609e-06  	3.164900000000000e+02	316	1.009999999999991e+00	1.000000000000000e+00
3.35407227630832e-06  	3.175100000000000e+02	317	1.019999999999982e+00	1.000000000000000e+00
3.36524134226506e-06  	3.185200000000000e+02	318	1.009999999999991e+00	1.000000000000000e+00
3.37638207994753e-06  	3.195200000000000e+02	319	1.000000000000000e+00	1.000000000000000e+00
3.3874729451817e-06   	3.205400000000000e+02	320	1.020000000000039e+00	1.000000000000000e+00
3.39849422365019e-06  	3.215500000000000e+02	321	1.009999999999991e+00	1.000000000000000e+00
3.40945050195079e-06  	3.225600000000000e+02	322	1.009999999999991e+00	1.000000000000000e+00
3.42034867971205e-06  	3.235700000000000e+02	323	1.009999999999991e+00	1.000000000000000e+00
3.43119423292039e-06  	3.245700000000000e+02	324	1.000000000000000e+00	1.000000000000000e+00
3.44199369677267e-06  	3.255700000000000e+02	325	1.000000000000000e+00	1.000000000000000e+00
3.4527438644751e-06   	3.265900000000000e+02	326	1.019999999999982e+00	1.000000000000000e+00
3.46345230016005e-06  	3.276100000000000e+02	327	1.020000000000039e+00	1.000000000000000e+00
3.47412639875579e-06  	3.286200000000000e+02	328	1.009999999999991e+00	1.000000000000000e+00
3.48477341768379e-06  	3.296200000000000e+02	329	1.000000000000000e+00	1.000000000000000e+00
3.49540050715552e-06  	3.306300000000000e+02	330	1.009999999999991e+00	1.000000000000000e+00
3.50598215183676e-06  	3.316300000000000e+02	331	1.000000000000000e+00	1.000000000000000e+00
3.51650150404957e-06  	3.326100000000000e+02	332	9.800000000000182e-01	1.000000000000000e+00
3.52696495687421e-06  	3.335900000000000e+02	333	9.799999999999613e-01	1.000000000000000e+00
3.53737646508089e-06  	3.345700000000000e+02	334	9.800000000000182e-01	1.000000000000000e+00
3.54774544535982e-06  	3.355900000000000e+02	335	1.019999999999982e+00	1.000000000000000e+00
3.55808109201163e-06  	3.365700000000000e+02	336	9.800000000000182e-01	1.000000000000000e+00
3.5683825146679e-06   	3.375600000000000e+02	337	9.900000000000091e-01	1.000000000000000e+00
3.57865540456726e-06  	3.385500000000000e+02	338	9.900000000000091e-01	1.000000000000000e+00
3.58890972176342e-06  	3.395300000000000e+02	339	9.799999999999613e-01	1.000000000000000e+00
3.59913467565866e-06  	3.405300000000000e+02	340	1.000000000000000e+00	1.000000000000000e+00
3.60929818280935e-06  	3.415100000000000e+02	341	9.800000000000182e-01	1.000000000000000e+00
3.61940414861111e-06  	3.425000000000000e+02	342	9.900000000000091e-01	1.000000000000000e+00
3.6294605546891e-06   	3.434800000000000e+02	343	9.800000000000182e-01	1.000000000000000e+00
3.63947724104658e-06  	3.444600000000000e+02	344	9.799999999999613e-01	1.000000000000000e+00
3.64946382232536e-06  	3.454500000000000e+02	345	9.900000000000091e-01	1.000000000000000e+00
3.6594235635056e-06   	3.464400000000000e+02	346	9.900000000000091e-01	1.000000000000000e+00
3.6693658314557e-06   	3.474500000000000e+02	347	1.009999999999991e+00	1.000000000000000e+00
3.67929375417739e-06  	3.484500000000000e+02	348	1.000000000000000e+00	1.000000000000000e+00
3.68916267899766e-06  	3.494700000000000e+02	349	1.020000000000039e+00	1.000000000000000e+00
3.69897629600612e-06  	3.504700000000000e+02	350	1.000000000000000e+00	1.000000000000000e+00
3.70874313410997e-06  	3.514700000000000e+02	351	1.000000000000000e+00	1.000000000000000e+00
3.71847345513522e-06  	3.524600000000000e+02	352	9.899999999999523e-01	1.000000000000000e+00
3.728176319848e-06    	3.534600000000000e+02	353	1.000000000000000e+00	1.000000000000000e+00
3.7378557712536e-06   	3.544600000000000e+02	354	1.000000000000000e+00	1.000000000000000e+00
3.74752064517215e-06  	3.554500000000000e+02	355	9.900000000000091e-01	1.000000000000000e+00
3.757164215892e-06    	3.564400000000000e+02	356	9.900000000000091e-01	1.000000000000000e+00
3.76675111058113e-06  	3.574500000000000e+02	357	1.009999999999991e+00	1.000000000000000e+00
3.77628954341782e-06  	3.584500000000000e+02	358	1.000000000000000e+00	1.000000000000000e+00
3.78578655392479e-06  	3.594500000000000e+02	359	1.000000000000000e+00	1.000000000000000e+00
3.79525179873011e-06  	3.604600000000000e+02	360	1.009999999999991e+00	1.000000000000000e+00
3.80469567309953e-06  	3.614500000000000e+02	361	9.900000000000091e-01	1.000000000000000e+00
3.81412104095441e-06  	3.624600000000000e+02	362	1.009999999999991e+00	1.000000000000000e+00
3.82353718182166e-06  	3.634500000000000e+02	363	9.900000000000091e-01	1.000000000000000e+00
3.83290836596063e-06  	3.644500000000000e+02	364	1.000000000000000e+00	1.000000000000000e+00
3.84222868885596e-06  	3.654600000000000e+02	365	1.009999999999991e+00	1.000000000000000e+00
3.85150674475244e-06  	3.664500000000000e+02	366	9.900000000000091e-01	1.000000000000000e+00
3.86075090331943e-06  	3.674600000000000e+02	367	1.009999999999991e+00	1.000000000000000e+00
3.86997289364046e-06  	3.684500000000000e+02	368	9.900000000000091e-01	1.000000000000000e+00
3.87917370021648e-06  	3.694600000000000e+02	369	1.009999999999991e+00	1.000000000000000e+00
3.88836307175566e-06  	3.704500000000000e+02	370	9.900000000000091e-01	1.000000000000000e+00
3.89752441356562e-06  	3.714400000000000e+02	371	9.900000000000091e-01	1.000000000000000e+00
3.90663538015515e-06  	3.724400000000000e+02	372	1.000000000000000e+00	1.000000000000000e+00
3.91570592618308e-06  	3.734300000000000e+02	373	9.900000000000091e-01	1.000000000000000e+00
3.92474404997894e-06  	3.744300000000000e+02	374	1.000000000000000e+00	1.000000000000000e+00
3.93376096747777e-06  	3.754300000000000e+02	375	1.000000000000000e+00	1.000000000000000e+00
3.94275761844542e-06  	3.764300000000000e+02	376	1.000000000000000e+00	1.000000000000000e+00
3.95174416932778e-06  	3.774200000000000e+02	377	9.900000000000091e-01	1.000000000000000e+00
3.96070556658759e-06  	3.784200000000000e+02	378	1.000000000000000e+00	1.000000000000000e+00
3.96961955344794e-06  	3.794200000000000e+02	379	1.000000000000000e+00	1.000000000000000e+00
3.97849564000368e-06  	3.804100000000000e+02	380	9.900000000000091e-01	1.000000000000000e+00
3.98734310193679e-06  	3.814000000000000e+02	381	9.899999999999523e-01	1.000000000000000e+00
3.99617185199638e-06  	3.824100000000000e+02	382	1.010000000000048e+00	1.000000000000000e+00
4.00498520260209e-06  	3.834300000000000e+02	383	1.019999999999982e+00	1.000000000000000e+00
4.01379208469359e-06  	3.844900000000000e+02	384	1.060000000000002e+00	1.000000000000000e+00
4.02256355576325e-06  	3.855000000000000e+02	385	1.009999999999991e+00	1.000000000000000e+00
4.03129274507151e-06  	3.864800000000000e+02	386	9.800000000000182e-01	1.000000000000000e+00
4.03998950150603e-06  	3.874600000000000e+02	387	9.799999999999613e-01	1.000000000000000e+00
4.04866189287507e-06  	3.884400000000000e+02	388	9.800000000000182e-01	1.000000000000000e+00
4.05732097942928e-06  	3.894300000000000e+02	389	9.900000000000091e-01	1.000000000000000e+00
4.06596835924186e-06  	3.904400000000000e+02	390	1.009999999999991e+00	1.000000000000000e+00
4.07460484030422e-06  	3.914700000000000e+02	391	1.030000000000030e+00	1.000000000000000e+00
4.0831956870855e-06   	3.924900000000000e+02	392	1.019999999999982e+00	1.000000000000000e+00
4.09174975863753e-06  	3.935300000000000e+02	393	1.039999999999964e+00	1.000000000000000e+00
4.10027569429771e-06  	3.945400000000000e+02	394	1.010000000000048e+00	1.000000000000000e+00
4.10878347679466e-06  	3.955100000000000e+02	395	9.699999999999704e-01	1.000000000000000e+00
4.11727919899925e-06  	3.965100000000000e+02	396	1.000000000000000e+00	1.000000000000000e+00
4.12577115903831e-06  	3.975000000000000e+02	397	9.900000000000091e-01	1.000000000000000e+00
4.13422865981821e-06  	3.984900000000000e+02	398	9.900000000000091e-01	1.000000000000000e+00
4.14264827788779e-06  	3.994900000000000e+02	399	1.000000000000000e+00	1.000000000000000e+00
4.15103915251332e-06  	4.004700000000000e+02	400	9.800000000000182e-01	1.000000000000000e+00
4.15941024079695e-06  	4.014700000000000e+02	401	1.000000000000000e+00	1.000000000000000e+00
4.16776600276375e-06  	4.024500000000000e+02	402	9.799999999999613e-01	1.000000000000000e+00
4.1760732352531e-06   	4.034300000000000e+02	403	9.800000000000182e-01	1.000000000000000e+00
4.18433178276364e-06  	4.044000000000000e+02	404	9.699999999999704e-01	1.000000000000000e+00
4.19254361582991e-06  	4.053800000000000e+02	405	9.800000000000182e-01	1.000000000000000e+00
4.20070716869155e-06  	4.063600000000000e+02	406	9.800000000000182e-01	1.000000000000000e+00
4.20882575282979e-06  	4.073300000000000e+02	407	9.699999999999704e-01	1.000000000000000e+00
4.21689849631936e-06  	4.083000000000000e+02	408	9.700000000000273e-01	1.000000000000000e+00
4.22492389233978e-06  	4.092700000000000e+02	409	9.699999999999704e-01	1.000000000000000e+00
4.23289054315558e-06  	4.102600000000000e+02	410	9.900000000000091e-01	1.000000000000000e+00
4.24079929775603e-06  	4.112300000000000e+02	411	9.700000000000273e-01	1.000000000000000e+00
4.24865034315263e-06  	4.121900000000000e+02	412	9.599999999999795e-01	1.000000000000000e+00
4.25644577990723e-06  	4.131600000000000e+02	413	9.700000000000273e-01	1.000000000000000e+00
4.2641857600382e-06   	4.141300000000000e+02	414	9.699999999999704e-01	1.000000000000000e+00
4.27187106261828e-06  	4.151000000000000e+02	415	9.700000000000273e-01	1.000000000000000e+00
4.27950305886617e-06  	4.160600000000000e+02	416	9.599999999999795e-01	1.000000000000000e+00
4.28708247900563e-06  	4.170300000000000e+02	417	9.699999999999704e-01	1.000000000000000e+00
4.2946106304545e-06   	4.180900000000000e+02	418	1.060000000000002e+00	1.000000000000000e+00
4.30208819818398e-06  	4.191100000000000e+02	419	1.020000000000039e+00	1.000000000000000e+00
4.30951585355512e-06  	4.200700000000000e+02	420	9.599999999999795e-01	1.000000000000000e+00
4.31689425467675e-06  	4.210500000000000e+02	421	9.800000000000182e-01	1.000000000000000e+00
4.32422460829242e-06  	4.220000000000000e+02	422	9.499999999999886e-01	1.000000000000000e+00
4.33150808693064e-06  	4.229600000000000e+02	423	9.599999999999795e-01	1.000000000000000e+00
4.33874418797543e-06  	4.239400000000000e+02	424	9.800000000000182e-01	1.000000000000000e+00
4.34593460107014e-06  	4.248900000000000e+02	425	9.499999999999886e-01	1.000000000000000e+00
4.35307989616231e-06  	4.258600000000000e+02	425	9.700000000000273e-01	0.000000000000000e+00
4.36018063262139e-06  	4.268200000000000e+02	426	9.599999999999795e-01	1.000000000000000e+00
4.36723788021344e-06  	4.277900000000000e+02	427	9.700000000000273e-01	1.000000000000000e+00
4.37425165081261e-06  	4.287600000000000e+02	428	9.699999999999704e-01	1.000000000000000e+00
4.38122247369854e-06  	4.297200000000000e+02	429	9.600000000000364e-01	1.000000000000000e+00
4.38815137062074e-06  	4.306900000000000e+02	430	9.699999999999704e-01	1.000000000000000e+00
4.39503933608644e-06  	4.316800000000000e+02	431	9.900000000000091e-01	1.000000000000000e+00
4.40188635754772e-06  	4.326500000000000e+02	432	9.699999999999704e-01	1.000000000000000e+00
4.40869340067237e-06  	4.336100000000000e+02	433	9.600000000000364e-01	1.000000000000000e+00
4.41546140595411e-06  	4.345700000000000e+02	434	9.599999999999795e-01	1.000000000000000e+00
4.42219081588047e-06  	4.355300000000000e+02	435	9.599999999999795e-01	1.000000000000000e+00
4.42888253394979e-06  	4.365000000000000e+02	436	9.700000000000273e-01	1.000000000000000e+00
4.43553651413959e-06  	4.374600000000000e+02	437	9.599999999999795e-01	1.000000000000000e+00
4.44215409349599e-06  	4.384300000000000e+02	438	9.700000000000273e-01	1.000000000000000e+00
4.4487356656364e-06   	4.394100000000000e+02	439	9.800000000000182e-01	1.000000000000000e+00
4.45528161784126e-06  	4.403700000000000e+02	440	9.599999999999795e-01	1.000000000000000e+00
4.4617927748797e-06   	4.413300000000000e+02	441	9.599999999999795e-01	1.000000000000000e+00
4.46826950237107e-06  	4.422900000000000e+02	442	9.600000000000364e-01	1.000000000000000e+00
4.47471259473619e-06  	4.432500000000000e+02	443	9.599999999999795e-01	1.000000000000000e+00
4.48112239728636e-06  	4.442100000000000e+02	444	9.599999999999795e-01	1.000000000000000e+00
4.48749925005375e-06  	4.451800000000000e+02	445	9.700000000000273e-01	1.000000000000000e+00
4.49384348789832e-06  	4.461400000000000e+02	446	9.599999999999795e-01	1.000000000000000e+00
4.50015627502979e-06  	4.470900000000000e+02	447	9.499999999999886e-01	1.000000000000000e+00
4.5064379196871e-06   	4.480700000000000e+02	448	9.800000000000182e-01	1.000000000000000e+00
4.51268831647204e-06  	4.490300000000000e+02	449	9.599999999999795e-01	1.000000000000000e+00
4.51890817783756e-06  	4.500100000000000e+02	450	9.800000000000182e-01	1.000000000000000e+00
4.52509779872581e-06  	4.509900000000000e+02	451	9.800000000000182e-01	1.000000000000000e+00
4.53125746983557e-06  	4.519500000000000e+02	452	9.599999999999795e-01	1.000000000000000e+00
4.53738747770318e-06  	4.529100000000000e+02	453	9.600000000000364e-01	1.000000000000000e+00
4.54348849467272e-06  	4.538700000000000e+02	454	9.599999999999795e-01	1.000000000000000e+00
4.54956040558839e-06  	4.548300000000000e+02	454	9.599999999999795e-01	0.000000000000000e+00
4.55560386763692e-06  	4.557700000000000e+02	455	9.399999999999977e-01	1.000000000000000e+00
4.56161876530092e-06  	4.567100000000000e+02	456	9.399999999999977e-01	1.000000000000000e+00
4.56760574110135e-06  	4.577100000000000e+02	457	1.000000000000000e+00	1.000000000000000e+00
4.57356542350058e-06  	4.586900000000000e+02	458	9.800000000000182e-01	1.000000000000000e+00
4.57949842739119e-06  	4.596300000000000e+02	459	9.399999999999977e-01	1.000000000000000e+00
4.58540462332908e-06  	4.605700000000000e+02	460	9.399999999999977e-01	1.000000000000000e+00
4.59128461318406e-06  	4.615200000000000e+02	461	9.499999999999886e-01	1.000000000000000e+00
4.59713790860656e-06  	4.624900000000000e+02	462	9.700000000000273e-01	1.000000000000000e+00
4.60296510516724e-06  	4.634300000000000e+02	463	9.399999999999977e-01	1.000000000000000e+00
4.60876572750062e-06  	4.643800000000000e+02	464	9.499999999999886e-01	1.000000000000000e+00
4.61454036484383e-06  	4.653100000000000e+02	465	9.300000000000068e-01	1.000000000000000e+00
4.62028924741586e-06  	4.662800000000000e+02	466	9.699999999999704e-01	1.000000000000000e+00
4.62601260239652e-06  	4.672400000000000e+02	467	9.600000000000364e-01	1.000000000000000e+00
4.6317106539796e-06   	4.682000000000000e+02	468	9.599999999999795e-01	1.000000000000000e+00
4.63738362342496e-06  	4.691700000000000e+02	469	9.700000000000273e-01	1.000000000000000e+00
4.64303206365339e-06  	4.701100000000000e+02	470	9.399999999999977e-01	1.000000000000000e+00
4.64865618443996e-06  	4.710600000000000e+02	471	9.499999999999886e-01	1.000000000000000e+00
4.65425652179551e-06  	4.720100000000000e+02	472	9.499999999999886e-01	1.000000000000000e+00
4.65983327464562e-06  	4.729600000000000e+02	473	9.499999999999886e-01	1.000000000000000e+00
4.66538663943623e-06  	4.739000000000000e+02	474	9.399999999999977e-01	1.000000000000000e+00
4.6709174518375e-06   	4.748300000000000e+02	474	9.300000000000068e-01	0.000000000000000e+00
4.67642589298786e-06  	4.757900000000000e+02	475	9.600000000000364e-01	1.000000000000000e+00
4.68191214185733e-06  	4.767400000000000e+02	476	9.499999999999886e-01	1.000000000000000e+00
4.68737668854414e-06  	4.776900000000000e+02	477	9.499999999999886e-01	1.000000000000000e+00
4.69281970283867e-06  	4.786400000000000e+02	478	9.499999999999886e-01	1.000000000000000e+00
4.69824135255123e-06  	4.795900000000000e+02	479	9.499999999999886e-01	1.000000000000000e+00
4.70364210958668e-06  	4.805300000000000e+02	480	9.399999999999977e-01	1.000000000000000e+00
4.70902243692918e-06  	4.814600000000000e+02	481	9.300000000000068e-01	1.000000000000000e+00
4.71438248741647e-06  	4.824100000000000e+02	482	9.500000000000455e-01	1.000000000000000e+00
4.71972241218181e-06  	4.833500000000000e+02	483	9.399999999999977e-01	1.000000000000000e+00
4.72504265773364e-06  	4.843000000000000e+02	484	9.499999999999886e-01	1.000000000000000e+00
4.73034366242636e-06  	4.852500000000000e+02	485	9.499999999999886e-01	1.000000000000000e+00
4.73562556386993e-06  	4.861800000000000e+02	486	9.300000000000068e-01	1.000000000000000e+00
4.74088849820704e-06  	4.871200000000000e+02	487	9.399999999999977e-01	1.000000000000000e+00
4.74613288884246e-06  	4.880500000000000e+02	488	9.300000000000068e-01	1.000000000000000e+00
4.75135886498287e-06  	4.890000000000000e+02	489	9.499999999999886e-01	1.000000000000000e+00
4.75656683923707e-06  	4.899300000000000e+02	490	9.300000000000068e-01	1.000000000000000e+00
4.76175693422703e-06  	4.908600000000000e+02	491	9.300000000000068e-01	1.000000000000000e+00
4.76692927132939e-06  	4.918200000000000e+02	491	9.599999999999795e-01	0.000000000000000e+00
4.77208397069224e-06  	4.927600000000000e+02	492	9.399999999999977e-01	1.000000000000000e+00
4.77722115125162e-06  	4.937100000000000e+02	493	9.499999999999886e-01	1.000000000000000e+00
4.78234093074776e-06  	4.946500000000000e+02	494	9.399999999999977e-01	1.000000000000000e+00
4.78744342574103e-06  	4.956000000000000e+02	495	9.500000000000455e-01	1.000000000000000e+00
4.7925287516276e-06   	4.965200000000000e+02	496	9.199999999999591e-01	1.000000000000000e+00
4.79759702265493e-06  	4.974600000000000e+02	497	9.399999999999977e-01	1.000000000000000e+00
4.8026483519369e-06   	4.984000000000000e+02	498	9.399999999999977e-01	1.000000000000000e+00
4.80768285146876e-06  	4.993400000000000e+02	499	9.399999999999977e-01	1.000000000000000e+00
4.81270063214182e-06  	5.002700000000000e+02	500	9.300000000000068e-01	1.000000000000000e+00
4.81770180375785e-06  	5.012200000000000e+02	501	9.500000000000455e-01	1.000000000000000e+00
4.82268569202867e-06  	5.021600000000000e+02	502	9.399999999999977e-01	1.000000000000000e+00
4.82765241510481e-06  	5.031100000000000e+02	503	9.499999999999886e-01	1.000000000000000e+00
4.83260234736595e-06  	5.040600000000000e+02	504	9.499999999999886e-01	1.000000000000000e+00
4.83753560109321e-06  	5.050000000000000e+02	505	9.399999999999977e-01	1.000000000000000e+00