# time                
# Time                	cpu                   	clock                 	cpu/step              	clock/step            
0                     	2.800000000000000e-01	0	0.000000000000000e+00	0.000000000000000e+00
1.19999904000077e-10  	1.753000000000000e+01	17	1.725000000000000e+01	1.700000000000000e+01
2.63999616000445e-10  	3.472000000000000e+01	35	1.719000000000000e+01	1.800000000000000e+01
4.36799071335788e-10  	5.177000000000000e+01	52	1.705000000000000e+01	1.700000000000000e+01
6.4415820274799e-10   	6.881999999999999e+01	69	1.704999999999999e+01	1.700000000000000e+01
8.92988954051989e-10  	8.127000000000000e+01	81	1.245000000000000e+01	1.200000000000000e+01
1.19158555841406e-09  	9.825000000000000e+01	98	1.698000000000000e+01	1.700000000000000e+01
1.54990019973483e-09  	1.154700000000000e+02	115	1.722000000000000e+01	1.700000000000000e+01
1.97987715304205e-09  	1.325500000000000e+02	132	1.708000000000001e+01	1.700000000000000e+01
2.49584683469715e-09  	1.496700000000000e+02	149	1.711999999999998e+01	1.700000000000000e+01
3.11500725792346e-09  	1.667200000000000e+02	167	1.705000000000001e+01	1.800000000000000e+01
3.85799792561604e-09  	1.838000000000000e+02	184	1.708000000000001e+01	1.700000000000000e+01
4.74957877730543e-09  	2.012000000000000e+02	201	1.739999999999998e+01	1.700000000000000e+01
5.81947007569327e-09  	2.189300000000000e+02	219	1.773000000000002e+01	1.800000000000000e+01
7.10332314980061e-09  	2.364400000000000e+02	236	1.750999999999999e+01	1.700000000000000e+01
8.6439270582337e-09   	2.443500000000000e+02	244	7.909999999999997e+00	8.000000000000000e+00
1.04926403548289e-08  	2.614600000000000e+02	261	1.710999999999999e+01	1.700000000000000e+01
1.27110799039868e-08  	2.785400000000000e+02	278	1.708000000000004e+01	1.700000000000000e+01
1.53731482990905e-08  	2.956000000000000e+02	295	1.706000000000000e+01	1.700000000000000e+01
1.85675453231065e-08  	3.126600000000000e+02	312	1.706000000000000e+01	1.700000000000000e+01
2.24007482696493e-08  	3.298100000000000e+02	330	1.714999999999998e+01	1.800000000000000e+01
2.70003801822243e-08  	3.474100000000000e+02	347	1.760000000000002e+01	1.700000000000000e+01
3.25197861127614e-08  	3.650600000000000e+02	365	1.766000000000003e+01	1.800000000000000e+01
3.91427806943095e-08  	3.823500000000000e+02	382	1.729000000000002e+01	1.700000000000000e+01
4.7090058259845e-08   	3.996200000000000e+02	399	1.726999999999998e+01	1.700000000000000e+01
5.66266396873558e-08  	4.173500000000000e+02	417	1.773000000000002e+01	1.800000000000000e+01
6.8069663887071e-08   	4.355000000000000e+02	435	1.814999999999998e+01	1.800000000000000e+01
8.18003495611728e-08  	4.532600000000000e+02	453	1.775999999999999e+01	1.800000000000000e+01
9.8274908448302e-08   	4.709700000000000e+02	471	1.771000000000004e+01	1.800000000000000e+01
1.18041771347303e-07  	4.886300000000000e+02	488	1.765999999999997e+01	1.700000000000000e+01
1.41761068005734e-07  	5.064000000000000e+02	506	1.776999999999998e+01	1.800000000000000e+01
1.7021881634771e-07   	5.243300000000000e+02	524	1.793000000000006e+01	1.800000000000000e+01
2.04360328380423e-07  	5.423300000000000e+02	542	1.800000000000000e+01	1.800000000000000e+01
2.45327339739873e-07  	5.606300000000000e+02	560	1.829999999999995e+01	1.800000000000000e+01
2.94467572577439e-07  	5.789700000000000e+02	579	1.834000000000003e+01	1.900000000000000e+01
3.53430040009386e-07  	5.975599999999999e+02	597	1.858999999999992e+01	1.800000000000000e+01
4.24151523302496e-07  	6.093000000000000e+02	609	1.174000000000001e+01	1.200000000000000e+01
5.07828706896359e-07  	6.172200000000000e+02	617	7.920000000000073e+00	8.000000000000000e+00
6.02583155746934e-07  	6.254000000000000e+02	625	8.179999999999950e+00	8.000000000000000e+00
6.98526608299302e-07  	6.333600000000000e+02	633	7.960000000000036e+00	8.000000000000000e+00
7.83472265606146e-07  	6.407500000000000e+02	641	7.389999999999986e+00	8.000000000000000e+00
8.60803931805985e-07  	6.478200000000001e+02	648	7.070000000000050e+00	7.000000000000000e+00
9.32436298907281e-07  	6.545599999999999e+02	654	6.739999999999895e+00	6.000000000000000e+00
9.99600748874124e-07  	6.610700000000001e+02	661	6.510000000000105e+00	7.000000000000000e+00
1.06314400898396e-06  	6.673700000000000e+02	667	6.299999999999955e+00	6.000000000000000e+00
1.12369288045949e-06  	6.735000000000000e+02	673	6.129999999999995e+00	6.000000000000000e+00
1.18175295510397e-06  	6.794800000000000e+02	679	5.980000000000018e+00	6.000000000000000e+00
1.23770892738307e-06  	6.854200000000000e+02	685	5.939999999999941e+00	6.000000000000000e+00
1.29182525125848e-06  	6.912800000000000e+02	691	5.860000000000014e+00	6.000000000000000e+00
1.34432959952908e-06  	6.970400000000000e+02	697	5.759999999999991e+00	6.000000000000000e+00
1.39544652719772e-06  	7.027600000000000e+02	703	5.720000000000027e+00	6.000000000000000e+00
1.4452971609049e-06   	7.083900000000000e+02	708	5.629999999999995e+00	5.000000000000000e+00
1.49403835914382e-06  	7.139800000000000e+02	714	5.590000000000032e+00	6.000000000000000e+00
1.54178724990526e-06  	7.195000000000000e+02	719	5.519999999999982e+00	5.000000000000000e+00
1.5886275033544e-06   	7.251000000000000e+02	725	5.600000000000023e+00	6.000000000000000e+00
1.63465714437248e-06  	7.307300000000000e+02	731	5.629999999999995e+00	6.000000000000000e+00
1.67990339223615e-06  	7.363900000000000e+02	736	5.659999999999968e+00	5.000000000000000e+00
1.72441226349363e-06  	7.418900000000000e+02	742	5.500000000000000e+00	6.000000000000000e+00
1.76822661379969e-06  	7.473500000000000e+02	747	5.460000000000036e+00	5.000000000000000e+00
1.81134855119487e-06  	7.526600000000000e+02	752	5.309999999999945e+00	5.000000000000000e+00
1.85383606804852e-06  	7.579299999999999e+02	758	5.269999999999982e+00	6.000000000000000e+00
1.89568944285959e-06  	7.631500000000000e+02	763	5.220000000000027e+00	5.000000000000000e+00
1.93692706814633e-06  	7.683700000000000e+02	768	5.220000000000027e+00	5.000000000000000e+00
1.97754971641967e-06  	7.735300000000000e+02	773	5.159999999999968e+00	5.000000000000000e+00
2.01757521673963e-06  	7.787200000000000e+02	779	5.190000000000055e+00	6.000000000000000e+00
2.05700476393611e-06  	7.838000000000000e+02	784	5.079999999999927e+00	5.000000000000000e+00
2.09582481753741e-06  	7.888300000000000e+02	789	5.030000000000086e+00	5.000000000000000e+00
2.13403878130886e-06  	7.942000000000000e+02	794	5.370000000000005e+00	5.000000000000000e+00
2.17163615403982e-06  	7.992200000000000e+02	799	5.019999999999982e+00	5.000000000000000e+00
2.20863629165176e-06  	8.042100000000000e+02	804	4.990000000000009e+00	5.000000000000000e+00
2.24503054684653e-06  	8.091500000000000e+02	809	4.939999999999941e+00	5.000000000000000e+00
2.2808382279649e-06   	8.142000000000000e+02	814	5.050000000000068e+00	5.000000000000000e+00
2.31606503465994e-06  	8.193300000000000e+02	819	5.129999999999995e+00	5.000000000000000e+00
2.35071701584665e-06  	8.242300000000000e+02	824	4.899999999999977e+00	5.000000000000000e+00
2.38480053521284e-06  	8.291100000000000e+02	829	4.879999999999995e+00	5.000000000000000e+00
2.41832223832575e-06  	8.340599999999999e+02	834	4.949999999999932e+00	5.000000000000000e+00
2.45130016254396e-06  	8.388900000000000e+02	839	4.830000000000041e+00	5.000000000000000e+00
2.48375149316187e-06  	8.436700000000000e+02	844	4.779999999999973e+00	5.000000000000000e+00
2.51569261615789e-06  	8.484500000000000e+02	848	4.780000000000086e+00	4.000000000000000e+00
2.54713916692687e-06  	8.532400000000000e+02	853	4.789999999999964e+00	5.000000000000000e+00
2.5780962383478e-06   	8.580100000000000e+02	858	4.769999999999982e+00	5.000000000000000e+00
2.60859777365201e-06  	8.626700000000000e+02	863	4.659999999999968e+00	5.000000000000000e+00
2.63864757378356e-06  	8.674000000000000e+02	867	4.730000000000018e+00	4.000000000000000e+00
2.66826769925548e-06  	8.722900000000000e+02	872	4.889999999999986e+00	5.000000000000000e+00
2.69747890342737e-06  	8.769600000000000e+02	877	4.670000000000073e+00	5.000000000000000e+00
2.72419568571638e-06  	8.814900000000000e+02	881	4.529999999999973e+00	4.000000000000000e+00
2.74893520868543e-06  	8.860300000000000e+02	886	4.539999999999964e+00	5.000000000000000e+00
2.7720957385238e-06   	8.903800000000000e+02	890	4.350000000000023e+00	4.000000000000000e+00
2.7939692827896e-06   	8.946400000000000e+02	894	4.259999999999991e+00	4.000000000000000e+00
2.81481552570558e-06  	8.988600000000000e+02	899	4.220000000000027e+00	5.000000000000000e+00
2.83473460430248e-06  	9.030500000000000e+02	903	4.189999999999941e+00	4.000000000000000e+00
2.85386915833866e-06  	9.071700000000000e+02	907	4.120000000000005e+00	4.000000000000000e+00
2.87231696138493e-06  	9.113500000000000e+02	911	4.180000000000064e+00	4.000000000000000e+00
2.89017459753838e-06  	9.157400000000000e+02	916	4.389999999999986e+00	5.000000000000000e+00
2.90753113469699e-06  	9.198400000000000e+02	920	4.100000000000023e+00	4.000000000000000e+00
2.92444619895924e-06  	9.239100000000000e+02	924	4.069999999999936e+00	4.000000000000000e+00
2.94097813932045e-06  	9.279200000000000e+02	928	4.009999999999991e+00	4.000000000000000e+00
2.95717624043205e-06  	9.318500000000000e+02	932	3.930000000000064e+00	4.000000000000000e+00
2.97309272784546e-06  	9.358000000000000e+02	936	3.949999999999932e+00	4.000000000000000e+00
2.98874222901839e-06  	9.397400000000000e+02	940	3.940000000000055e+00	4.000000000000000e+00
3.00397640894474e-06  	9.435900000000000e+02	943	3.850000000000023e+00	3.000000000000000e+00
3.01884169991655e-06  	9.475599999999999e+02	947	3.969999999999914e+00	4.000000000000000e+00
3.03337506696286e-06  	9.514600000000000e+02	951	3.900000000000091e+00	4.000000000000000e+00
3.04761183468171e-06  	9.554500000000000e+02	955	3.990000000000009e+00	4.000000000000000e+00
3.06157186177534e-06  	9.592500000000000e+02	959	3.799999999999955e+00	4.000000000000000e+00
3.07528503593551e-06  	9.630300000000000e+02	963	3.779999999999973e+00	4.000000000000000e+00
3.08877678356414e-06  	9.669400000000001e+02	967	3.910000000000082e+00	4.000000000000000e+00
3.10206685805899e-06  	9.707300000000000e+02	971	3.789999999999964e+00	4.000000000000000e+00
3.11517179897621e-06  	9.744900000000000e+02	974	3.759999999999991e+00	3.000000000000000e+00
3.12810529626643e-06  	9.782700000000000e+02	978	3.779999999999973e+00	4.000000000000000e+00
3.14088185848006e-06  	9.820300000000000e+02	982	3.759999999999991e+00	4.000000000000000e+00
3.15352005239205e-06  	9.859700000000000e+02	986	3.940000000000055e+00	4.000000000000000e+00
3.16603251750156e-06  	9.897400000000000e+02	990	3.769999999999982e+00	4.000000000000000e+00
3.17843599738916e-06  	9.934700000000000e+02	993	3.730000000000018e+00	3.000000000000000e+00
3.19074330182575e-06  	9.972900000000000e+02	997	3.819999999999936e+00	4.000000000000000e+00
3.20296669282299e-06  	1.001040000000000e+03	1001	3.750000000000000e+00	4.000000000000000e+00
3.21511643969222e-06  	1.004770000000000e+03	1005	3.730000000000018e+00	4.000000000000000e+00
3.22718287574263e-06  	1.008550000000000e+03	1008	3.779999999999973e+00	3.000000000000000e+00
3.23914194854592e-06  	1.012310000000000e+03	1012	3.759999999999991e+00	4.000000000000000e+00
3.25099989683654e-06  	1.015990000000000e+03	1016	3.680000000000064e+00	4.000000000000000e+00
3.26276126324831e-06  	1.019710000000000e+03	1020	3.720000000000027e+00	4.000000000000000e+00
3.27443181925467e-06  	1.023380000000000e+03	1023	3.669999999999959e+00	3.000000000000000e+00
3.28601849488725e-06  	1.027060000000000e+03	1027	3.679999999999950e+00	4.000000000000000e+00
3.29752932344058e-06  	1.030820000000000e+03	1031	3.759999999999991e+00	4.000000000000000e+00
3.30896122681882e-06  	1.034530000000000e+03	1034	3.710000000000036e+00	3.000000000000000e+00
3.32032461132619e-06  	1.038250000000000e+03	1038	3.720000000000027e+00	4.000000000000000e+00
3.33162820952433e-06  	1.041940000000000e+03	1042	3.690000000000055e+00	4.000000000000000e+00
3.34287918389473e-06  	1.045610000000000e+03	1045	3.669999999999845e+00	3.000000000000000e+00
3.35408580659805e-06  	1.049230000000000e+03	1049	3.620000000000118e+00	4.000000000000000e+00
3.36525487099113e-06  	1.052860000000000e+03	1053	3.629999999999882e+00	4.000000000000000e+00
3.37639560711392e-06  	1.056470000000000e+03	1056	3.610000000000127e+00	3.000000000000000e+00
3.38748647079538e-06  	1.060090000000000e+03	1060	3.619999999999891e+00	4.000000000000000e+00
3.39850774772091e-06  	1.063690000000000e+03	1064	3.600000000000136e+00	4.000000000000000e+00
3.40946402448764e-06  	1.067370000000000e+03	1067	3.679999999999836e+00	3.000000000000000e+00
3.42036220072317e-06  	1.071010000000000e+03	1071	3.640000000000100e+00	4.000000000000000e+00
3.43120775241315e-06  	1.074590000000000e+03	1074	3.579999999999927e+00	3.000000000000000e+00
3.44200721475352e-06  	1.078200000000000e+03	1078	3.610000000000127e+00	4.000000000000000e+00
3.45275738095094e-06  	1.081890000000000e+03	1082	3.690000000000055e+00	4.000000000000000e+00
3.46346462755392e-06  	1.085510000000000e+03	1085	3.619999999999891e+00	3.000000000000000e+00
3.47413872478661e-06  	1.089240000000000e+03	1089	3.730000000000018e+00	4.000000000000000e+00
3.48478574235502e-06  	1.092940000000000e+03	1093	3.700000000000045e+00	4.000000000000000e+00
3.49541283046972e-06  	1.096550000000000e+03	1096	3.609999999999900e+00	3.000000000000000e+00
3.50599447379971e-06  	1.100150000000000e+03	1100	3.600000000000136e+00	4.000000000000000e+00
3.51651382466924e-06  	1.103730000000000e+03	1104	3.579999999999927e+00	4.000000000000000e+00
3.52697614153926e-06  	1.107860000000000e+03	1108	4.129999999999882e+00	4.000000000000000e+00
3.53738764853888e-06  	1.111770000000000e+03	1112	3.910000000000082e+00	4.000000000000000e+00
3.54775662761568e-06  	1.115580000000000e+03	1115	3.809999999999945e+00	3.000000000000000e+00
3.55809227306921e-06  	1.119220000000000e+03	1119	3.640000000000100e+00	4.000000000000000e+00
3.56839369453118e-06  	1.122860000000000e+03	1123	3.639999999999873e+00	4.000000000000000e+00
3.57866658323955e-06  	1.126420000000000e+03	1126	3.560000000000173e+00	3.000000000000000e+00
3.58892089924686e-06  	1.129930000000000e+03	1130	3.509999999999991e+00	4.000000000000000e+00
3.59914585195666e-06  	1.133500000000000e+03	1133	3.569999999999936e+00	3.000000000000000e+00
3.60930935792905e-06  	1.137030000000000e+03	1137	3.529999999999973e+00	4.000000000000000e+00
3.61941532255916e-06  	1.140540000000000e+03	1140	3.509999999999991e+00	3.000000000000000e+00
3.62947172747125e-06  	1.144080000000000e+03	1144	3.539999999999964e+00	4.000000000000000e+00
3.63948841266744e-06  	1.147670000000000e+03	1148	3.590000000000146e+00	4.000000000000000e+00
3.64947499278842e-06  	1.151270000000000e+03	1151	3.599999999999909e+00	3.000000000000000e+00
3.65943473281397e-06  	1.154860000000000e+03	1155	3.589999999999918e+00	4.000000000000000e+00
3.66937699961141e-06  	1.158480000000000e+03	1158	3.620000000000118e+00	3.000000000000000e+00
3.6793049211821e-06   	1.162040000000000e+03	1162	3.559999999999945e+00	4.000000000000000e+00
3.68917384485821e-06  	1.165610000000000e+03	1165	3.569999999999936e+00	3.000000000000000e+00
3.69898746072892e-06  	1.169150000000000e+03	1169	3.540000000000191e+00	4.000000000000000e+00
3.70875429770045e-06  	1.172710000000000e+03	1173	3.559999999999945e+00	4.000000000000000e+00
3.71848461759761e-06  	1.176300000000000e+03	1176	3.589999999999918e+00	3.000000000000000e+00
3.72818748118547e-06  	1.179820000000000e+03	1180	3.519999999999982e+00	4.000000000000000e+00
3.73786595836641e-06  	1.183380000000000e+03	1183	3.560000000000173e+00	3.000000000000000e+00
3.74753083126216e-06  	1.186920000000000e+03	1187	3.539999999999964e+00	4.000000000000000e+00
3.75717440096146e-06  	1.190460000000000e+03	1190	3.539999999999964e+00	3.000000000000000e+00
3.76676129463604e-06  	1.194070000000000e+03	1194	3.609999999999900e+00	4.000000000000000e+00
3.77629972646331e-06  	1.197640000000000e+03	1198	3.570000000000164e+00	4.000000000000000e+00
3.78579673596524e-06  	1.201170000000000e+03	1201	3.529999999999973e+00	3.000000000000000e+00
3.79526197976888e-06  	1.204710000000000e+03	1205	3.539999999999964e+00	4.000000000000000e+00
3.80470585313889e-06  	1.208220000000000e+03	1208	3.509999999999991e+00	3.000000000000000e+00
3.81413121999631e-06  	1.211780000000000e+03	1212	3.559999999999945e+00	4.000000000000000e+00
3.82354735986709e-06  	1.215320000000000e+03	1215	3.539999999999964e+00	3.000000000000000e+00
3.8329176299996e-06   	1.218860000000000e+03	1219	3.539999999999964e+00	4.000000000000000e+00
3.84223795199708e-06  	1.222380000000000e+03	1222	3.520000000000209e+00	3.000000000000000e+00
3.85151511186664e-06  	1.226260000000000e+03	1226	3.879999999999882e+00	4.000000000000000e+00
3.86075926962918e-06  	1.230610000000000e+03	1230	4.349999999999909e+00	4.000000000000000e+00
3.86998125914768e-06  	1.234820000000000e+03	1235	4.210000000000036e+00	5.000000000000000e+00
3.87918206492303e-06  	1.239060000000000e+03	1239	4.240000000000009e+00	4.000000000000000e+00
3.88837143566252e-06  	1.243260000000000e+03	1243	4.200000000000045e+00	4.000000000000000e+00
3.89753277667523e-06  	1.247470000000000e+03	1247	4.210000000000036e+00	4.000000000000000e+00
3.90664374247191e-06  	1.251030000000000e+03	1251	3.559999999999945e+00	4.000000000000000e+00
3.91571428771049e-06  	1.254580000000000e+03	1254	3.549999999999955e+00	3.000000000000000e+00
3.92475241071983e-06  	1.258090000000000e+03	1258	3.509999999999991e+00	4.000000000000000e+00
3.93376848125185e-06  	1.261600000000000e+03	1261	3.509999999999991e+00	3.000000000000000e+00
3.94276513151583e-06  	1.265100000000000e+03	1265	3.500000000000000e+00	4.000000000000000e+00
3.95175168169531e-06  	1.268620000000000e+03	1269	3.519999999999982e+00	4.000000000000000e+00
3.96071307825421e-06  	1.272140000000000e+03	1272	3.520000000000209e+00	3.000000000000000e+00
3.96962706441736e-06  	1.275670000000000e+03	1276	3.529999999999973e+00	4.000000000000000e+00
3.97850315027886e-06  	1.279240000000000e+03	1279	3.569999999999936e+00	3.000000000000000e+00
3.98734979638626e-06  	1.282800000000000e+03	1283	3.559999999999945e+00	4.000000000000000e+00
3.99617854583027e-06  	1.286460000000000e+03	1286	3.660000000000082e+00	3.000000000000000e+00
4.00499189582148e-06  	1.290010000000000e+03	1290	3.549999999999955e+00	4.000000000000000e+00
4.01379877729892e-06  	1.293510000000000e+03	1293	3.500000000000000e+00	3.000000000000000e+00
4.022570247757e-06    	1.297100000000000e+03	1297	3.589999999999918e+00	4.000000000000000e+00
4.03129943645661e-06  	1.300640000000000e+03	1301	3.540000000000191e+00	4.000000000000000e+00
4.03999619228475e-06  	1.304140000000000e+03	1304	3.500000000000000e+00	3.000000000000000e+00
4.04866858304912e-06  	1.307660000000000e+03	1308	3.519999999999982e+00	4.000000000000000e+00
4.05732688763466e-06  	1.311170000000000e+03	1311	3.509999999999991e+00	3.000000000000000e+00
4.06597426691473e-06  	1.314670000000000e+03	1315	3.500000000000000e+00	4.000000000000000e+00
4.07461074744525e-06  	1.318150000000000e+03	1318	3.480000000000018e+00	3.000000000000000e+00
4.0832015936975e-06   	1.321780000000000e+03	1322	3.629999999999882e+00	4.000000000000000e+00
4.09175566472276e-06  	1.325260000000000e+03	1325	3.480000000000018e+00	3.000000000000000e+00
4.10028084199701e-06  	1.328740000000000e+03	1329	3.480000000000018e+00	4.000000000000000e+00
4.10878862403729e-06  	1.332240000000000e+03	1332	3.500000000000000e+00	3.000000000000000e+00
4.11728434578584e-06  	1.335720000000000e+03	1336	3.480000000000018e+00	4.000000000000000e+00
4.12577630536907e-06  	1.339200000000000e+03	1339	3.480000000000018e+00	3.000000000000000e+00
4.13423380569499e-06  	1.342680000000000e+03	1343	3.480000000000018e+00	4.000000000000000e+00
4.14265342331262e-06  	1.346100000000000e+03	1346	3.419999999999845e+00	3.000000000000000e+00
4.15104429748775e-06  	1.349610000000000e+03	1349	3.509999999999991e+00	3.000000000000000e+00
4.15941538532203e-06  	1.353130000000000e+03	1353	3.520000000000209e+00	4.000000000000000e+00
4.16777114684031e-06  	1.357060000000000e+03	1357	3.929999999999836e+00	4.000000000000000e+00
4.17607837888375e-06  	1.360790000000000e+03	1361	3.730000000000018e+00	4.000000000000000e+00
4.18433692595099e-06  	1.364320000000000e+03	1364	3.529999999999973e+00	3.000000000000000e+00
4.19254875857646e-06  	1.367850000000000e+03	1368	3.529999999999973e+00	4.000000000000000e+00
4.2007123109999e-06   	1.371330000000000e+03	1371	3.480000000000018e+00	3.000000000000000e+00
4.20883089470235e-06  	1.374780000000000e+03	1375	3.450000000000045e+00	4.000000000000000e+00
4.21690295749036e-06  	1.378250000000000e+03	1378	3.470000000000027e+00	3.000000000000000e+00
4.22492835313699e-06  	1.381700000000000e+03	1382	3.450000000000045e+00	4.000000000000000e+00
4.23289434096423e-06  	1.385180000000000e+03	1385	3.480000000000018e+00	3.000000000000000e+00
4.24080309525104e-06  	1.388670000000000e+03	1389	3.490000000000009e+00	4.000000000000000e+00
4.24865478407563e-06  	1.392190000000000e+03	1392	3.519999999999982e+00	3.000000000000000e+00
4.25645022046869e-06  	1.395690000000000e+03	1396	3.500000000000000e+00	4.000000000000000e+00
4.26419020024068e-06  	1.399220000000000e+03	1399	3.529999999999973e+00	3.000000000000000e+00
4.27187611946032e-06  	1.402710000000000e+03	1403	3.490000000000009e+00	4.000000000000000e+00
4.27950811530505e-06  	1.406160000000000e+03	1406	3.450000000000045e+00	3.000000000000000e+00
4.28708753504412e-06  	1.409620000000000e+03	1410	3.459999999999809e+00	4.000000000000000e+00
4.29461568609532e-06  	1.413080000000000e+03	1413	3.460000000000036e+00	3.000000000000000e+00
4.30209325342979e-06  	1.416550000000000e+03	1416	3.470000000000027e+00	3.000000000000000e+00
4.30952090840857e-06  	1.420000000000000e+03	1420	3.450000000000045e+00	4.000000000000000e+00
4.31689930914044e-06  	1.423460000000000e+03	1423	3.460000000000036e+00	3.000000000000000e+00
4.32422966236888e-06  	1.426980000000000e+03	1427	3.519999999999982e+00	4.000000000000000e+00
4.33151258619758e-06  	1.430400000000000e+03	1430	3.420000000000073e+00	3.000000000000000e+00
4.33874923426217e-06  	1.433810000000000e+03	1434	3.409999999999854e+00	4.000000000000000e+00
4.34593964697757e-06  	1.437220000000000e+03	1437	3.410000000000082e+00	3.000000000000000e+00
4.35308494169282e-06  	1.440660000000000e+03	1441	3.440000000000055e+00	4.000000000000000e+00
4.36018567777733e-06  	1.444090000000000e+03	1444	3.429999999999836e+00	3.000000000000000e+00
4.36724292499709e-06  	1.447490000000000e+03	1447	3.400000000000091e+00	3.000000000000000e+00
4.37425669522628e-06  	1.450960000000000e+03	1451	3.470000000000027e+00	4.000000000000000e+00
4.38122751774449e-06  	1.454400000000000e+03	1454	3.440000000000055e+00	3.000000000000000e+00
4.38815641430117e-06  	1.457850000000000e+03	1458	3.449999999999818e+00	4.000000000000000e+00
4.39504437940352e-06  	1.461300000000000e+03	1461	3.450000000000045e+00	3.000000000000000e+00
4.40189140050361e-06  	1.464740000000000e+03	1465	3.440000000000055e+00	4.000000000000000e+00
4.40869844326917e-06  	1.468160000000000e+03	1468	3.420000000000073e+00	3.000000000000000e+00
4.41546644819389e-06  	1.471580000000000e+03	1471	3.419999999999845e+00	3.000000000000000e+00
4.42219585776526e-06  	1.474990000000000e+03	1475	3.410000000000082e+00	4.000000000000000e+00
4.42888757548159e-06  	1.478400000000000e+03	1478	3.410000000000082e+00	3.000000000000000e+00
4.43554155532038e-06  	1.481810000000000e+03	1482	3.409999999999854e+00	4.000000000000000e+00
4.44215913432769e-06  	1.485210000000000e+03	1485	3.400000000000091e+00	3.000000000000000e+00
4.44874070612091e-06  	1.488680000000000e+03	1489	3.470000000000027e+00	4.000000000000000e+00
4.45528665798046e-06  	1.492090000000000e+03	1492	3.409999999999854e+00	3.000000000000000e+00
4.46179781467543e-06  	1.495720000000000e+03	1496	3.630000000000109e+00	4.000000000000000e+00
4.46827454182514e-06  	1.499210000000000e+03	1499	3.490000000000009e+00	3.000000000000000e+00
4.47471719932839e-06  	1.502640000000000e+03	1503	3.430000000000064e+00	4.000000000000000e+00
4.48112700156959e-06  	1.506090000000000e+03	1506	3.449999999999818e+00	3.000000000000000e+00
4.4875038540296e-06   	1.509690000000000e+03	1510	3.600000000000136e+00	4.000000000000000e+00
4.49384851300037e-06  	1.513070000000000e+03	1513	3.379999999999882e+00	3.000000000000000e+00
4.50016129979969e-06  	1.516460000000000e+03	1516	3.390000000000100e+00	3.000000000000000e+00
4.50644335733819e-06  	1.519860000000000e+03	1520	3.399999999999864e+00	4.000000000000000e+00
4.5126941629049e-06   	1.523280000000000e+03	1523	3.420000000000073e+00	3.000000000000000e+00
4.51891442906587e-06  	1.526730000000000e+03	1527	3.450000000000045e+00	4.000000000000000e+00
4.52510404954888e-06  	1.530140000000000e+03	1530	3.410000000000082e+00	3.000000000000000e+00
4.53126411767912e-06  	1.533520000000000e+03	1533	3.379999999999882e+00	3.000000000000000e+00
4.53739412511987e-06  	1.536890000000000e+03	1537	3.370000000000118e+00	4.000000000000000e+00
4.54349514166457e-06  	1.540310000000000e+03	1540	3.419999999999845e+00	3.000000000000000e+00
4.54956705215743e-06  	1.543710000000000e+03	1544	3.400000000000091e+00	4.000000000000000e+00
4.55561013116648e-06  	1.547140000000000e+03	1547	3.430000000000064e+00	3.000000000000000e+00
4.56162502843575e-06  	1.550540000000000e+03	1550	3.399999999999864e+00	3.000000000000000e+00
4.56761200384329e-06  	1.553930000000000e+03	1554	3.390000000000100e+00	4.000000000000000e+00
4.57357168585142e-06  	1.557320000000000e+03	1557	3.389999999999873e+00	3.000000000000000e+00
4.57950468935267e-06  	1.560700000000000e+03	1561	3.380000000000109e+00	4.000000000000000e+00
4.58541088490297e-06  	1.564060000000000e+03	1564	3.359999999999900e+00	3.000000000000000e+00
4.59129051203602e-06  	1.567430000000000e+03	1567	3.370000000000118e+00	3.000000000000000e+00
4.59714380709663e-06  	1.570940000000000e+03	1571	3.509999999999991e+00	4.000000000000000e+00
4.60297064739425e-06  	1.574330000000000e+03	1574	3.389999999999873e+00	3.000000000000000e+00
4.60877126939064e-06  	1.577690000000000e+03	1578	3.360000000000127e+00	4.000000000000000e+00
4.61454590639836e-06  	1.581050000000000e+03	1581	3.359999999999900e+00	3.000000000000000e+00
4.6202947886364e-06   	1.584470000000000e+03	1584	3.420000000000073e+00	3.000000000000000e+00
4.62601814328455e-06  	1.587820000000000e+03	1588	3.349999999999909e+00	4.000000000000000e+00
4.63171619453659e-06  	1.591210000000000e+03	1591	3.390000000000100e+00	3.000000000000000e+00
4.63738916365238e-06  	1.594600000000000e+03	1595	3.389999999999873e+00	4.000000000000000e+00
4.64303760355265e-06  	1.598030000000000e+03	1598	3.430000000000064e+00	3.000000000000000e+00
4.64866172401249e-06  	1.601390000000000e+03	1601	3.360000000000127e+00	3.000000000000000e+00
4.65426206104268e-06  	1.604770000000000e+03	1605	3.379999999999882e+00	4.000000000000000e+00
4.65983881356879e-06  	1.608160000000000e+03	1608	3.390000000000100e+00	3.000000000000000e+00
4.66539217803678e-06  	1.611530000000000e+03	1611	3.369999999999891e+00	3.000000000000000e+00
4.67092299011672e-06  	1.614930000000000e+03	1615	3.400000000000091e+00	4.000000000000000e+00
4.67643143094706e-06  	1.618330000000000e+03	1618	3.399999999999864e+00	3.000000000000000e+00
4.6819176794978e-06   	1.621680000000000e+03	1622	3.350000000000136e+00	4.000000000000000e+00
4.68738222586714e-06  	1.625090000000000e+03	1625	3.409999999999854e+00	3.000000000000000e+00
4.69282523984545e-06  	1.628460000000000e+03	1628	3.370000000000118e+00	3.000000000000000e+00
4.69824688924304e-06  	1.631830000000000e+03	1632	3.369999999999891e+00	4.000000000000000e+00
4.70364764596471e-06  	1.635200000000000e+03	1635	3.370000000000118e+00	3.000000000000000e+00
4.70902797299464e-06  	1.638590000000000e+03	1638	3.389999999999873e+00	3.000000000000000e+00
4.71438802317053e-06  	1.641960000000000e+03	1642	3.370000000000118e+00	4.000000000000000e+00
4.71972794762563e-06  	1.645340000000000e+03	1645	3.379999999999882e+00	3.000000000000000e+00
4.72504819286838e-06  	1.648710000000000e+03	1649	3.370000000000118e+00	4.000000000000000e+00
4.73034919725313e-06  	1.652080000000000e+03	1652	3.369999999999891e+00	3.000000000000000e+00
4.73563109838984e-06  	1.655460000000000e+03	1655	3.380000000000109e+00	3.000000000000000e+00
4.7408940324212e-06   	1.658820000000000e+03	1659	3.359999999999900e+00	4.000000000000000e+00
4.74613842275194e-06  	1.662210000000000e+03	1662	3.390000000000100e+00	3.000000000000000e+00
4.75136439858873e-06  	1.665580000000000e+03	1665	3.369999999999891e+00	3.000000000000000e+00
4.75657237254036e-06  	1.668980000000000e+03	1669	3.400000000000091e+00	4.000000000000000e+00
4.7617624672288e-06   	1.672290000000000e+03	1672	3.309999999999945e+00	3.000000000000000e+00
4.76693480403066e-06  	1.675700000000000e+03	1676	3.410000000000082e+00	4.000000000000000e+00
4.77208950309405e-06  	1.679080000000000e+03	1679	3.379999999999882e+00	3.000000000000000e+00
4.77722668335498e-06  	1.682480000000000e+03	1682	3.400000000000091e+00	3.000000000000000e+00
4.78234646255368e-06  	1.685850000000000e+03	1686	3.369999999999891e+00	4.000000000000000e+00
4.7874489572505e-06   	1.689240000000000e+03	1689	3.390000000000100e+00	3.000000000000000e+00
4.79253428284164e-06  	1.692610000000000e+03	1693	3.369999999999891e+00	4.000000000000000e+00
4.79760255357452e-06  	1.696030000000000e+03	1696	3.420000000000073e+00	3.000000000000000e+00
4.80265388256302e-06  	1.699390000000000e+03	1699	3.360000000000127e+00	3.000000000000000e+00
4.8076883818024e-06   	1.702710000000000e+03	1703	3.319999999999936e+00	4.000000000000000e+00
4.81270616218394e-06  	1.706080000000000e+03	1706	3.369999999999891e+00	3.000000000000000e+00
4.81770733350942e-06  	1.709430000000000e+03	1709	3.350000000000136e+00	3.000000000000000e+00
4.8226912214907e-06   	1.712810000000000e+03	1713	3.379999999999882e+00	4.000000000000000e+00