# time                
# Time                	cpu                   	clock                 	cpu/step              	clock/step            
0                     	1.000000000000000e-01	0	0.000000000000000e+00	0.000000000000000e+00
1.19999904000077e-10  	3.150000000000000e+00	3	3.050000000000000e+00	3.000000000000000e+00
2.63999616000445e-10  	6.060000000000000e+00	6	2.910000000000000e+00	3.000000000000000e+00
4.36799071335788e-10  	8.990000000000000e+00	9	2.930000000000001e+00	3.000000000000000e+00
6.4415820274799e-10   	1.201000000000000e+01	12	3.020000000000000e+00	3.000000000000000e+00
8.92988954051989e-10  	1.414000000000000e+01	14	2.130000000000001e+00	2.000000000000000e+00
1.19158555841406e-09  	1.725000000000000e+01	17	3.109999999999999e+00	3.000000000000000e+00
1.54990019973483e-09  	2.022000000000000e+01	20	2.969999999999999e+00	3.000000000000000e+00
1.97987715304205e-09  	2.326000000000000e+01	23	3.040000000000003e+00	3.000000000000000e+00
2.49584683469715e-09  	2.632000000000000e+01	26	3.059999999999999e+00	3.000000000000000e+00
3.11500725792346e-09  	2.934000000000000e+01	29	3.020000000000000e+00	3.000000000000000e+00
3.85799792561604e-09  	3.235000000000000e+01	32	3.010000000000002e+00	3.000000000000000e+00
4.74957877730543e-09  	3.548000000000000e+01	35	3.129999999999995e+00	3.000000000000000e+00
5.81947007569327e-09  	3.850000000000000e+01	38	3.020000000000003e+00	3.000000000000000e+00
7.10332314980061e-09  	4.156000000000000e+01	41	3.060000000000002e+00	3.000000000000000e+00
8.6439270582337e-09   	4.468000000000000e+01	44	3.119999999999997e+00	3.000000000000000e+00
1.04926403548289e-08  	4.772000000000000e+01	47	3.039999999999999e+00	3.000000000000000e+00
1.27110799039868e-08  	5.077000000000000e+01	50	3.050000000000004e+00	3.000000000000000e+00
1.53731482990905e-08  	5.385000000000000e+01	53	3.079999999999998e+00	3.000000000000000e+00
1.85675453231065e-08  	5.692000000000000e+01	56	3.070000000000000e+00	3.000000000000000e+00
2.24007482696493e-08  	6.002000000000000e+01	60	3.100000000000001e+00	4.000000000000000e+00
2.70003801822243e-08  	6.322000000000000e+01	63	3.199999999999996e+00	3.000000000000000e+00
3.25197861127614e-08  	6.648000000000000e+01	66	3.260000000000005e+00	3.000000000000000e+00
3.91427806943095e-08  	6.973999999999999e+01	69	3.259999999999991e+00	3.000000000000000e+00
4.7090058259845e-08   	7.303000000000000e+01	73	3.290000000000006e+00	4.000000000000000e+00
5.66266396873558e-08  	7.634999999999999e+01	76	3.319999999999993e+00	3.000000000000000e+00
6.8069663887071e-08   	7.967000000000000e+01	79	3.320000000000007e+00	3.000000000000000e+00
8.18003495611728e-08  	8.314000000000000e+01	83	3.469999999999999e+00	4.000000000000000e+00
9.8274908448302e-08   	8.670000000000000e+01	86	3.560000000000002e+00	3.000000000000000e+00
1.18041771347303e-07  	9.030000000000000e+01	90	3.599999999999994e+00	4.000000000000000e+00
1.41761068005734e-07  	9.392000000000000e+01	93	3.620000000000005e+00	3.000000000000000e+00
1.7021881634771e-07   	9.759999999999999e+01	97	3.679999999999993e+00	4.000000000000000e+00
2.04360328380423e-07  	1.013200000000000e+02	101	3.719999999999999e+00	4.000000000000000e+00
2.45327339739873e-07  	1.053100000000000e+02	105	3.990000000000009e+00	4.000000000000000e+00
2.94467572577439e-07  	1.092600000000000e+02	109	3.950000000000003e+00	4.000000000000000e+00
3.53430040009386e-07  	1.132800000000000e+02	113	4.019999999999996e+00	4.000000000000000e+00
4.24151523302496e-07  	1.164600000000000e+02	116	3.179999999999993e+00	3.000000000000000e+00
5.07828706896359e-07  	1.178300000000000e+02	117	1.370000000000005e+00	1.000000000000000e+00
6.02583155746934e-07  	1.193000000000000e+02	119	1.469999999999999e+00	2.000000000000000e+00
6.98526608299302e-07  	1.207500000000000e+02	120	1.450000000000003e+00	1.000000000000000e+00
7.83472265606146e-07  	1.220600000000000e+02	122	1.310000000000002e+00	2.000000000000000e+00
8.60803931805985e-07  	1.233000000000000e+02	123	1.239999999999995e+00	1.000000000000000e+00
9.32436298907281e-07  	1.244800000000000e+02	124	1.180000000000007e+00	1.000000000000000e+00
9.99600748874124e-07  	1.256300000000000e+02	125	1.149999999999991e+00	1.000000000000000e+00
1.06314400898396e-06  	1.267200000000000e+02	126	1.090000000000003e+00	1.000000000000000e+00
1.12372995876413e-06  	1.277900000000000e+02	127	1.070000000000007e+00	1.000000000000000e+00
1.18179001163626e-06  	1.288400000000000e+02	128	1.049999999999997e+00	1.000000000000000e+00
1.23774596293205e-06  	1.298900000000000e+02	129	1.049999999999983e+00	1.000000000000000e+00
1.291862266514e-06    	1.309100000000000e+02	130	1.020000000000010e+00	1.000000000000000e+00
1.34436659509564e-06  	1.319200000000000e+02	131	1.009999999999991e+00	1.000000000000000e+00
1.3954835035956e-06   	1.329200000000000e+02	132	1.000000000000000e+00	1.000000000000000e+00
1.44533411860894e-06  	1.339100000000000e+02	133	9.900000000000091e-01	1.000000000000000e+00
1.49407529857007e-06  	1.348900000000000e+02	134	9.799999999999898e-01	1.000000000000000e+00
1.54182417142583e-06  	1.358800000000000e+02	135	9.900000000000091e-01	1.000000000000000e+00
1.58866440731002e-06  	1.368400000000000e+02	136	9.600000000000080e-01	1.000000000000000e+00
1.63469403106712e-06  	1.377900000000000e+02	137	9.499999999999886e-01	1.000000000000000e+00
1.67996108397505e-06  	1.387500000000000e+02	138	9.600000000000080e-01	1.000000000000000e+00
1.72449008710731e-06  	1.396900000000000e+02	139	9.399999999999977e-01	1.000000000000000e+00
1.76830440271716e-06  	1.406200000000000e+02	140	9.300000000000068e-01	1.000000000000000e+00
1.81142630596443e-06  	1.415600000000000e+02	141	9.399999999999977e-01	1.000000000000000e+00
1.85391378917258e-06  	1.424800000000000e+02	142	9.199999999999875e-01	1.000000000000000e+00
1.89576713084031e-06  	1.434000000000000e+02	143	9.200000000000159e-01	1.000000000000000e+00
1.93700472347132e-06  	1.443300000000000e+02	144	9.300000000000068e-01	1.000000000000000e+00
1.97762733957593e-06  	1.452400000000000e+02	145	9.099999999999966e-01	1.000000000000000e+00
2.01765280820003e-06  	1.461400000000000e+02	146	8.999999999999773e-01	1.000000000000000e+00
2.05708232417258e-06  	1.470600000000000e+02	147	9.200000000000159e-01	1.000000000000000e+00
2.0959023470326e-06   	1.479700000000000e+02	148	9.099999999999966e-01	1.000000000000000e+00
2.13411628054274e-06  	1.488500000000000e+02	148	8.799999999999955e-01	0.000000000000000e+00
2.17171362350066e-06  	1.497400000000000e+02	149	8.900000000000148e-01	1.000000000000000e+00
2.20871373181249e-06  	1.506200000000000e+02	150	8.799999999999955e-01	1.000000000000000e+00
2.24510795818696e-06  	1.515000000000000e+02	151	8.799999999999955e-01	1.000000000000000e+00
2.28091561094953e-06  	1.523800000000000e+02	152	8.799999999999955e-01	1.000000000000000e+00
2.31614238974875e-06  	1.532500000000000e+02	153	8.700000000000045e-01	1.000000000000000e+00
2.35079434349485e-06  	1.540900000000000e+02	154	8.400000000000034e-01	1.000000000000000e+00
2.38487783587059e-06  	1.549400000000000e+02	154	8.499999999999943e-01	0.000000000000000e+00
2.41839951243795e-06  	1.557800000000000e+02	155	8.400000000000034e-01	1.000000000000000e+00
2.45137741054121e-06  	1.566300000000000e+02	156	8.499999999999943e-01	1.000000000000000e+00
2.48382871546119e-06  	1.574600000000000e+02	157	8.300000000000125e-01	1.000000000000000e+00
2.5157698131633e-06   	1.582800000000000e+02	158	8.199999999999932e-01	1.000000000000000e+00
2.54720619826063e-06  	1.591200000000000e+02	159	8.400000000000034e-01	1.000000000000000e+00
2.57816324838825e-06  	1.599400000000000e+02	159	8.199999999999932e-01	0.000000000000000e+00
2.60866476271249e-06  	1.607500000000000e+02	160	8.100000000000023e-01	1.000000000000000e+00
2.63871454217478e-06  	1.615600000000000e+02	161	8.100000000000023e-01	1.000000000000000e+00
2.66833464727299e-06  	1.623700000000000e+02	162	8.100000000000023e-01	1.000000000000000e+00
2.69754583135244e-06  	1.631700000000000e+02	163	7.999999999999829e-01	1.000000000000000e+00
2.72425526153873e-06  	1.639400000000000e+02	164	7.700000000000102e-01	1.000000000000000e+00
2.74898219207723e-06  	1.647000000000000e+02	164	7.599999999999909e-01	0.000000000000000e+00
2.7721316845333e-06   	1.654500000000000e+02	165	7.500000000000000e-01	1.000000000000000e+00
2.7939953832775e-06   	1.661800000000000e+02	166	7.300000000000182e-01	1.000000000000000e+00
2.81483268330252e-06  	1.668900000000000e+02	166	7.099999999999795e-01	0.000000000000000e+00
2.83474359649996e-06  	1.676200000000000e+02	167	7.300000000000182e-01	1.000000000000000e+00
2.85387061547702e-06  	1.683500000000000e+02	168	7.299999999999898e-01	1.000000000000000e+00
2.87231141452496e-06  	1.690700000000000e+02	169	7.199999999999989e-01	1.000000000000000e+00
2.89016576904435e-06  	1.697800000000000e+02	169	7.100000000000080e-01	0.000000000000000e+00
2.90751300631319e-06  	1.704900000000000e+02	170	7.100000000000080e-01	1.000000000000000e+00
2.92442218203483e-06  	1.711800000000000e+02	171	6.899999999999977e-01	1.000000000000000e+00
2.94094849763203e-06  	1.718800000000000e+02	171	6.999999999999886e-01	0.000000000000000e+00
2.95714390085285e-06  	1.726100000000000e+02	172	7.300000000000182e-01	1.000000000000000e+00
2.9730551741926e-06   	1.733200000000000e+02	173	7.099999999999795e-01	1.000000000000000e+00
2.98869963482237e-06  	1.739800000000000e+02	174	6.599999999999966e-01	1.000000000000000e+00
3.00393142950995e-06  	1.746500000000000e+02	174	6.700000000000159e-01	0.000000000000000e+00
3.01879444951768e-06  	1.753000000000000e+02	175	6.500000000000057e-01	1.000000000000000e+00
3.03332564603409e-06  	1.759500000000000e+02	175	6.499999999999773e-01	0.000000000000000e+00
3.04756033105375e-06  	1.765900000000000e+02	176	6.400000000000148e-01	1.000000000000000e+00
3.06151835576855e-06  	1.772300000000000e+02	177	6.399999999999864e-01	1.000000000000000e+00
3.07522959786815e-06  	1.778600000000000e+02	177	6.300000000000239e-01	0.000000000000000e+00
3.08871947544674e-06  	1.784900000000000e+02	178	6.299999999999955e-01	1.000000000000000e+00
3.10200773549398e-06  	1.791300000000000e+02	179	6.399999999999864e-01	1.000000000000000e+00
3.11511091227079e-06  	1.797500000000000e+02	179	6.200000000000045e-01	0.000000000000000e+00
3.12804269138021e-06  	1.803800000000000e+02	180	6.299999999999955e-01	1.000000000000000e+00
3.14081926185088e-06  	1.810000000000000e+02	181	6.200000000000045e-01	1.000000000000000e+00
3.15345581511091e-06  	1.816300000000000e+02	181	6.299999999999955e-01	0.000000000000000e+00
3.16596828851981e-06  	1.822400000000000e+02	182	6.100000000000136e-01	1.000000000000000e+00
3.17837177663451e-06  	1.828600000000000e+02	182	6.200000000000045e-01	0.000000000000000e+00
3.19067908923441e-06  	1.834800000000000e+02	183	6.199999999999761e-01	1.000000000000000e+00
3.2029024883393e-06   	1.841200000000000e+02	184	6.400000000000148e-01	1.000000000000000e+00
3.21505224326734e-06  	1.847400000000000e+02	184	6.200000000000045e-01	0.000000000000000e+00
3.22711868732129e-06  	1.853600000000000e+02	185	6.200000000000045e-01	1.000000000000000e+00
3.23907776805691e-06  	1.859800000000000e+02	186	6.199999999999761e-01	1.000000000000000e+00
3.25093572421279e-06  	1.866000000000000e+02	186	6.200000000000045e-01	0.000000000000000e+00
3.26269709842574e-06  	1.872100000000000e+02	187	6.100000000000136e-01	1.000000000000000e+00
3.27436907030093e-06  	1.878200000000000e+02	187	6.099999999999852e-01	0.000000000000000e+00
3.28595714157561e-06  	1.884300000000000e+02	188	6.100000000000136e-01	1.000000000000000e+00
3.29746797743117e-06  	1.890500000000000e+02	189	6.200000000000045e-01	1.000000000000000e+00
3.30890123967077e-06  	1.896500000000000e+02	189	5.999999999999943e-01	0.000000000000000e+00
3.32026463122799e-06  	1.902500000000000e+02	190	5.999999999999943e-01	1.000000000000000e+00
3.33156823643888e-06  	1.908600000000000e+02	190	6.100000000000136e-01	0.000000000000000e+00
3.34282052741357e-06  	1.914700000000000e+02	191	6.099999999999852e-01	1.000000000000000e+00
3.35402845638766e-06  	1.920800000000000e+02	192	6.100000000000136e-01	1.000000000000000e+00
3.36519881833214e-06  	1.927100000000000e+02	192	6.299999999999955e-01	0.000000000000000e+00
3.37634084544867e-06  	1.933200000000000e+02	193	6.099999999999852e-01	1.000000000000000e+00
3.38743171541591e-06  	1.939200000000000e+02	193	5.999999999999943e-01	0.000000000000000e+00
3.39845299858777e-06  	1.945200000000000e+02	194	6.000000000000227e-01	1.000000000000000e+00
3.40941052433657e-06  	1.951300000000000e+02	195	6.099999999999852e-01	1.000000000000000e+00
3.42030870660845e-06  	1.957300000000000e+02	195	5.999999999999943e-01	0.000000000000000e+00
3.43115548236018e-06  	1.963400000000000e+02	196	6.100000000000136e-01	1.000000000000000e+00
3.4419561584051e-06   	1.969400000000000e+02	196	5.999999999999943e-01	0.000000000000000e+00
3.45270752727734e-06  	1.975500000000000e+02	197	6.100000000000136e-01	1.000000000000000e+00
3.46341596699259e-06  	1.981700000000000e+02	198	6.199999999999761e-01	1.000000000000000e+00
3.47409124997756e-06  	1.987800000000000e+02	198	6.100000000000136e-01	0.000000000000000e+00
3.48473944730243e-06  	1.993800000000000e+02	199	5.999999999999943e-01	1.000000000000000e+00
3.49536888128401e-06  	1.999700000000000e+02	200	5.900000000000034e-01	1.000000000000000e+00
3.50595168982866e-06  	2.005700000000000e+02	200	5.999999999999943e-01	0.000000000000000e+00
3.51647219226109e-06  	2.011500000000000e+02	201	5.800000000000125e-01	1.000000000000000e+00
3.52693564826453e-06  	2.017600000000000e+02	201	6.099999999999852e-01	0.000000000000000e+00
3.53734828338074e-06  	2.023600000000000e+02	202	6.000000000000227e-01	1.000000000000000e+00
3.54771838139371e-06  	2.029500000000000e+02	203	5.899999999999750e-01	1.000000000000000e+00
3.55805513861358e-06  	2.035500000000000e+02	203	6.000000000000227e-01	0.000000000000000e+00
3.56835766450412e-06  	2.041500000000000e+02	204	5.999999999999943e-01	1.000000000000000e+00
3.57863165154179e-06  	2.047400000000000e+02	204	5.900000000000034e-01	0.000000000000000e+00
3.58888706191707e-06  	2.053200000000000e+02	205	5.799999999999841e-01	1.000000000000000e+00
3.59911310274632e-06  	2.059200000000000e+02	205	5.999999999999943e-01	0.000000000000000e+00
3.60927768381941e-06  	2.065200000000000e+02	206	6.000000000000227e-01	1.000000000000000e+00
3.61938471142937e-06  	2.071100000000000e+02	207	5.900000000000034e-01	1.000000000000000e+00
3.62944216893627e-06  	2.077000000000000e+02	207	5.899999999999750e-01	0.000000000000000e+00
3.63945989844053e-06  	2.083100000000000e+02	208	6.100000000000136e-01	1.000000000000000e+00
3.64944751661026e-06  	2.089100000000000e+02	208	5.999999999999943e-01	0.000000000000000e+00
3.65940828911966e-06  	2.095100000000000e+02	209	5.999999999999943e-01	1.000000000000000e+00
3.66935158478597e-06  	2.101200000000000e+02	210	6.100000000000136e-01	1.000000000000000e+00
3.67928053226229e-06  	2.107300000000000e+02	210	6.099999999999852e-01	0.000000000000000e+00
3.68915046970134e-06  	2.113300000000000e+02	211	6.000000000000227e-01	1.000000000000000e+00
3.69896508801687e-06  	2.119200000000000e+02	211	5.899999999999750e-01	0.000000000000000e+00
3.70873291790956e-06  	2.125100000000000e+02	212	5.900000000000034e-01	1.000000000000000e+00
3.71846422332462e-06  	2.131100000000000e+02	213	6.000000000000227e-01	1.000000000000000e+00
3.72816806688204e-06  	2.136900000000000e+02	213	5.799999999999841e-01	0.000000000000000e+00
3.73784849241579e-06  	2.142900000000000e+02	214	5.999999999999943e-01	1.000000000000000e+00
3.74751433753152e-06  	2.148700000000000e+02	214	5.800000000000125e-01	0.000000000000000e+00
3.75715887517305e-06  	2.154700000000000e+02	215	5.999999999999943e-01	1.000000000000000e+00
3.76674672545446e-06  	2.160700000000000e+02	216	5.999999999999943e-01	1.000000000000000e+00
3.77628610424853e-06  	2.166600000000000e+02	216	5.900000000000034e-01	0.000000000000000e+00
3.7857840525158e-06   	2.172500000000000e+02	217	5.900000000000034e-01	1.000000000000000e+00
3.79525022881918e-06  	2.178500000000000e+02	217	5.999999999999943e-01	0.000000000000000e+00
3.8046941033427e-06   	2.184500000000000e+02	218	5.999999999999943e-01	1.000000000000000e+00
3.81411947135139e-06  	2.190300000000000e+02	219	5.800000000000125e-01	1.000000000000000e+00
3.82353561237231e-06  	2.196400000000000e+02	219	6.099999999999852e-01	0.000000000000000e+00
3.83290679666419e-06  	2.202300000000000e+02	220	5.900000000000034e-01	1.000000000000000e+00
3.84222711971162e-06  	2.208400000000000e+02	220	6.100000000000136e-01	0.000000000000000e+00
3.8515051757595e-06   	2.214400000000000e+02	221	5.999999999999943e-01	1.000000000000000e+00
3.86074933447734e-06  	2.220400000000000e+02	222	5.999999999999943e-01	1.000000000000000e+00
3.86997132494885e-06  	2.226300000000000e+02	222	5.900000000000034e-01	0.000000000000000e+00
3.87917213167503e-06  	2.232300000000000e+02	223	5.999999999999943e-01	1.000000000000000e+00
3.88836238197318e-06  	2.238400000000000e+02	223	6.100000000000136e-01	0.000000000000000e+00
3.89752372384888e-06  	2.244500000000000e+02	224	6.099999999999852e-01	1.000000000000000e+00
3.90663469050381e-06  	2.250300000000000e+02	225	5.800000000000125e-01	1.000000000000000e+00
3.91570523659683e-06  	2.256300000000000e+02	225	5.999999999999943e-01	0.000000000000000e+00
3.92474336045756e-06  	2.262300000000000e+02	226	5.999999999999943e-01	1.000000000000000e+00
3.9337602780211e-06   	2.268500000000000e+02	226	6.200000000000045e-01	0.000000000000000e+00
3.94275777167306e-06  	2.274600000000000e+02	227	6.100000000000136e-01	1.000000000000000e+00
3.95174516334861e-06  	2.280500000000000e+02	228	5.900000000000034e-01	1.000000000000000e+00
3.96070656051568e-06  	2.286600000000000e+02	228	6.099999999999852e-01	0.000000000000000e+00
3.96962054728378e-06  	2.292600000000000e+02	229	5.999999999999943e-01	1.000000000000000e+00
3.97849663374766e-06  	2.298500000000000e+02	229	5.900000000000034e-01	0.000000000000000e+00
3.9873440955892e-06   	2.304400000000000e+02	230	5.900000000000034e-01	1.000000000000000e+00
3.99617365747116e-06  	2.310300000000000e+02	231	5.900000000000034e-01	1.000000000000000e+00
4.00498781706926e-06  	2.316100000000000e+02	231	5.800000000000125e-01	0.000000000000000e+00
4.01379550696585e-06  	2.322000000000000e+02	232	5.899999999999750e-01	1.000000000000000e+00
4.02256697772278e-06  	2.328000000000000e+02	232	6.000000000000227e-01	0.000000000000000e+00
4.0312961667198e-06   	2.334000000000000e+02	233	5.999999999999943e-01	1.000000000000000e+00
4.03999292284425e-06  	2.340200000000000e+02	234	6.200000000000045e-01	1.000000000000000e+00
4.04866609774276e-06  	2.346300000000000e+02	234	6.099999999999852e-01	0.000000000000000e+00
4.0573251839175e-06   	2.352100000000000e+02	235	5.800000000000125e-01	1.000000000000000e+00
4.06597256335113e-06  	2.358100000000000e+02	235	5.999999999999943e-01	0.000000000000000e+00
4.07460982160598e-06  	2.364000000000000e+02	236	5.900000000000034e-01	1.000000000000000e+00
4.0832014373855e-06   	2.370300000000000e+02	237	6.299999999999955e-01	1.000000000000000e+00
4.09175550842471e-06  	2.376700000000000e+02	237	6.399999999999864e-01	0.000000000000000e+00
4.10028144357375e-06  	2.382800000000000e+02	238	6.100000000000136e-01	1.000000000000000e+00
4.10878998039891e-06  	2.388700000000000e+02	238	5.900000000000034e-01	0.000000000000000e+00
4.1172857020273e-06   	2.394600000000000e+02	239	5.900000000000034e-01	1.000000000000000e+00
4.12577841365688e-06  	2.400800000000000e+02	240	6.200000000000045e-01	1.000000000000000e+00
4.13423665993711e-06  	2.406900000000000e+02	240	6.099999999999852e-01	0.000000000000000e+00
4.14265627730405e-06  	2.412900000000000e+02	241	5.999999999999943e-01	1.000000000000000e+00
4.15104715122936e-06  	2.418900000000000e+02	241	5.999999999999943e-01	0.000000000000000e+00
4.15941823881441e-06  	2.424900000000000e+02	242	6.000000000000227e-01	1.000000000000000e+00
4.16777400008391e-06  	2.430900000000000e+02	243	5.999999999999943e-01	1.000000000000000e+00
4.17608123188002e-06  	2.436900000000000e+02	243	5.999999999999943e-01	0.000000000000000e+00
4.18433977870137e-06  	2.442900000000000e+02	244	5.999999999999943e-01	1.000000000000000e+00
4.19255161108235e-06  	2.448900000000000e+02	244	5.999999999999943e-01	0.000000000000000e+00
4.20071516326273e-06  	2.454800000000000e+02	245	5.900000000000034e-01	1.000000000000000e+00
4.20883374672347e-06  	2.460800000000000e+02	246	6.000000000000227e-01	1.000000000000000e+00
4.21690580927114e-06  	2.466700000000000e+02	246	5.899999999999750e-01	0.000000000000000e+00
4.22493120467883e-06  	2.472600000000000e+02	247	5.900000000000034e-01	1.000000000000000e+00
4.23289719226889e-06  	2.478400000000000e+02	247	5.800000000000125e-01	0.000000000000000e+00
4.24080594632024e-06  	2.484300000000000e+02	248	5.900000000000034e-01	1.000000000000000e+00
4.24865763491106e-06  	2.490200000000000e+02	249	5.900000000000034e-01	1.000000000000000e+00
4.25645307107202e-06  	2.496000000000000e+02	249	5.799999999999841e-01	0.000000000000000e+00
4.26419305061357e-06  	2.501800000000000e+02	250	5.800000000000125e-01	1.000000000000000e+00
4.27187896960437e-06  	2.507700000000000e+02	250	5.900000000000034e-01	0.000000000000000e+00
4.27951096522187e-06  	2.513800000000000e+02	251	6.099999999999852e-01	1.000000000000000e+00
4.28709038473528e-06  	2.519800000000000e+02	252	5.999999999999943e-01	1.000000000000000e+00
4.29461853556234e-06  	2.525800000000000e+02	252	6.000000000000227e-01	0.000000000000000e+00
4.30209551848925e-06  	2.531600000000000e+02	253	5.799999999999841e-01	1.000000000000000e+00
4.30952317329222e-06  	2.537500000000000e+02	253	5.900000000000034e-01	0.000000000000000e+00
4.31690157384945e-06  	2.543500000000000e+02	254	5.999999999999943e-01	1.000000000000000e+00
4.32423192690439e-06  	2.549200000000000e+02	254	5.699999999999932e-01	0.000000000000000e+00
4.33151485056071e-06  	2.555000000000000e+02	255	5.800000000000125e-01	1.000000000000000e+00
4.33875149845402e-06  	2.560800000000000e+02	256	5.799999999999841e-01	1.000000000000000e+00
4.34594191099923e-06  	2.566500000000000e+02	256	5.699999999999932e-01	0.000000000000000e+00
4.35308720554536e-06  	2.572200000000000e+02	257	5.700000000000500e-01	1.000000000000000e+00
4.3601879414618e-06   	2.577900000000000e+02	257	5.699999999999932e-01	0.000000000000000e+00
4.36724466779977e-06  	2.583600000000000e+02	258	5.699999999999932e-01	1.000000000000000e+00
4.37425843790114e-06  	2.589300000000000e+02	258	5.699999999999932e-01	0.000000000000000e+00
4.38122926029231e-06  	2.594900000000000e+02	259	5.600000000000023e-01	1.000000000000000e+00
4.38815815672273e-06  	2.600600000000000e+02	260	5.699999999999932e-01	1.000000000000000e+00
4.39504562551997e-06  	2.606400000000000e+02	260	5.799999999999841e-01	0.000000000000000e+00
4.40189264653082e-06  	2.612100000000000e+02	261	5.699999999999932e-01	1.000000000000000e+00
4.40869968920765e-06  	2.617700000000000e+02	261	5.600000000000023e-01	0.000000000000000e+00
4.41546769404415e-06  	2.623400000000000e+02	262	5.699999999999932e-01	1.000000000000000e+00
4.42219710352782e-06  	2.629200000000000e+02	262	5.800000000000409e-01	0.000000000000000e+00
4.42888835268047e-06  	2.634900000000000e+02	263	5.699999999999932e-01	1.000000000000000e+00
4.43554233246515e-06  	2.640500000000000e+02	264	5.600000000000023e-01	1.000000000000000e+00
4.44215945320102e-06  	2.646100000000000e+02	264	5.600000000000023e-01	0.000000000000000e+00
4.44874102497228e-06  	2.651800000000000e+02	265	5.699999999999932e-01	1.000000000000000e+00
4.45528697680998e-06  	2.657500000000000e+02	265	5.699999999999932e-01	0.000000000000000e+00
4.46179813348323e-06  	2.663100000000000e+02	266	5.600000000000023e-01	1.000000000000000e+00
4.46827486061132e-06  	2.668700000000000e+02	266	5.600000000000023e-01	0.000000000000000e+00
4.47471795261506e-06  	2.674400000000000e+02	267	5.699999999999932e-01	1.000000000000000e+00
4.48112775480572e-06  	2.680000000000000e+02	268	5.600000000000023e-01	1.000000000000000e+00
4.48750460721544e-06  	2.685600000000000e+02	268	5.600000000000023e-01	0.000000000000000e+00
4.49384926613617e-06  	2.691400000000000e+02	269	5.799999999999841e-01	1.000000000000000e+00
4.50016247017728e-06  	2.697300000000000e+02	269	5.900000000000318e-01	0.000000000000000e+00
4.50644411442709e-06  	2.702900000000000e+02	270	5.600000000000023e-01	1.000000000000000e+00
4.51269491994424e-06  	2.708600000000000e+02	270	5.699999999999932e-01	0.000000000000000e+00
4.51891478087963e-06  	2.714300000000000e+02	271	5.699999999999932e-01	1.000000000000000e+00
4.52510440133983e-06  	2.720200000000000e+02	272	5.899999999999750e-01	1.000000000000000e+00
4.53126407202362e-06  	2.725800000000000e+02	272	5.600000000000023e-01	0.000000000000000e+00
4.53739407946731e-06  	2.731400000000000e+02	273	5.600000000000023e-01	1.000000000000000e+00
4.54349470612378e-06  	2.737000000000000e+02	273	5.600000000000023e-01	0.000000000000000e+00
4.54956661664435e-06  	2.742700000000000e+02	274	5.699999999999932e-01	1.000000000000000e+00
4.55560969568097e-06  	2.748400000000000e+02	274	5.699999999999932e-01	0.000000000000000e+00
4.56162459297769e-06  	2.754000000000000e+02	275	5.600000000000023e-01	1.000000000000000e+00
4.56761194400698e-06  	2.759600000000000e+02	276	5.600000000000023e-01	1.000000000000000e+00
4.57357237046729e-06  	2.765300000000000e+02	276	5.699999999999932e-01	0.000000000000000e+00
4.57950611176996e-06  	2.770900000000000e+02	277	5.600000000000023e-01	1.000000000000000e+00
4.5854130384685e-06   	2.776600000000000e+02	277	5.700000000000500e-01	0.000000000000000e+00
4.59129302780489e-06  	2.782200000000000e+02	278	5.600000000000023e-01	1.000000000000000e+00
4.59714632271116e-06  	2.787900000000000e+02	278	5.699999999999932e-01	0.000000000000000e+00
4.60297316285513e-06  	2.793600000000000e+02	279	5.699999999999932e-01	1.000000000000000e+00
4.60877378469857e-06  	2.799300000000000e+02	279	5.699999999999932e-01	0.000000000000000e+00
4.61454807199974e-06  	2.804900000000000e+02	280	5.600000000000023e-01	1.000000000000000e+00
4.62029660764296e-06  	2.810500000000000e+02	281	5.600000000000023e-01	1.000000000000000e+00
4.62601927539315e-06  	2.816100000000000e+02	281	5.600000000000023e-01	0.000000000000000e+00
4.63171698617184e-06  	2.821800000000000e+02	282	5.699999999999932e-01	1.000000000000000e+00
4.63738961780484e-06  	2.827400000000000e+02	282	5.600000000000023e-01	0.000000000000000e+00
4.64303772313427e-06  	2.833100000000000e+02	283	5.699999999999932e-01	1.000000000000000e+00
4.64866151189795e-06  	2.838700000000000e+02	283	5.600000000000023e-01	0.000000000000000e+00
4.65426152003139e-06  	2.844300000000000e+02	284	5.600000000000023e-01	1.000000000000000e+00
4.65983827258914e-06  	2.849800000000000e+02	285	5.500000000000114e-01	1.000000000000000e+00
4.66539163708864e-06  	2.855400000000000e+02	285	5.600000000000023e-01	0.000000000000000e+00
4.67092212834998e-06  	2.861000000000000e+02	286	5.600000000000023e-01	1.000000000000000e+00
4.67643056923012e-06  	2.866700000000000e+02	286	5.699999999999932e-01	0.000000000000000e+00
4.68191681783045e-06  	2.872400000000000e+02	287	5.699999999999932e-01	1.000000000000000e+00
4.68738136424919e-06  	2.878100000000000e+02	287	5.699999999999932e-01	0.000000000000000e+00
4.6928243782767e-06   	2.883800000000000e+02	288	5.699999999999932e-01	1.000000000000000e+00
4.6982460277233e-06   	2.889400000000000e+02	288	5.600000000000023e-01	0.000000000000000e+00
4.7036467844938e-06   	2.894900000000000e+02	289	5.500000000000114e-01	1.000000000000000e+00
4.70902711157237e-06  	2.900600000000000e+02	290	5.699999999999932e-01	1.000000000000000e+00
4.71438716179671e-06  	2.906200000000000e+02	290	5.600000000000023e-01	0.000000000000000e+00
4.71972708630009e-06  	2.911800000000000e+02	291	5.600000000000023e-01	1.000000000000000e+00
4.72504733159093e-06  	2.917300000000000e+02	291	5.500000000000114e-01	0.000000000000000e+00
4.73034804109735e-06  	2.923000000000000e+02	292	5.699999999999932e-01	1.000000000000000e+00
4.73562964947738e-06  	2.928600000000000e+02	292	5.600000000000023e-01	0.000000000000000e+00
4.74089258358878e-06  	2.934300000000000e+02	293	5.699999999999932e-01	1.000000000000000e+00
4.74613697399928e-06  	2.940000000000000e+02	294	5.699999999999932e-01	1.000000000000000e+00
4.75136294991556e-06  	2.945700000000000e+02	294	5.699999999999932e-01	0.000000000000000e+00
4.75657092394641e-06  	2.951300000000000e+02	295	5.600000000000023e-01	1.000000000000000e+00
4.76176101871378e-06  	2.956900000000000e+02	295	5.600000000000023e-01	0.000000000000000e+00
4.76693335559431e-06  	2.962500000000000e+02	296	5.600000000000023e-01	1.000000000000000e+00
4.77208805473609e-06  	2.968100000000000e+02	296	5.600000000000023e-01	0.000000000000000e+00
4.77722523507516e-06  	2.973700000000000e+02	297	5.600000000000023e-01	1.000000000000000e+00
4.78234501435173e-06  	2.979200000000000e+02	297	5.500000000000114e-01	0.000000000000000e+00
4.78744750912616e-06  	2.984700000000000e+02	298	5.500000000000114e-01	1.000000000000000e+00
4.79253283479464e-06  	2.990300000000000e+02	299	5.599999999999454e-01	1.000000000000000e+00
4.7976011056046e-06   	2.995900000000000e+02	299	5.600000000000023e-01	0.000000000000000e+00
4.80265243466994e-06  	3.001400000000000e+02	300	5.500000000000114e-01	1.000000000000000e+00
4.80768693398589e-06  	3.007100000000000e+02	300	5.699999999999932e-01	0.000000000000000e+00
4.81270444996027e-06  	3.012900000000000e+02	301	5.800000000000409e-01	1.000000000000000e+00
4.81770535862635e-06  	3.018600000000000e+02	301	5.699999999999932e-01	0.000000000000000e+00
4.82268924671103e-06  	3.024300000000000e+02	302	5.699999999999932e-01	1.000000000000000e+00
4.82765596960167e-06  	3.029800000000000e+02	303	5.500000000000114e-01	1.000000000000000e+00
4.83260590167794e-06  	3.035600000000000e+02	303	5.799999999999841e-01	0.000000000000000e+00
4.83753915522096e-06  	3.041300000000000e+02	304	5.699999999999932e-01	1.000000000000000e+00