# Region type : faceZone nozzleOutletZone
# Faces  :     3013
# Area   :     6.30029605e-09
# Time         	sum(rhoPhi)	sum(phi)
4.6000212e-05  	-2.26279283e-03	3.16719149e-06
4.6000425e-05  	-2.26291270e-03	3.16724979e-06
4.6000637e-05  	-2.26294130e-03	3.16730720e-06
4.6000849e-05  	-2.26298175e-03	3.16736484e-06
4.6001062e-05  	-2.26302078e-03	3.16742172e-06
4.6001274e-05  	-2.26306019e-03	3.16747902e-06
4.6001486e-05  	-2.26309970e-03	3.16753577e-06
4.6001699e-05  	-2.26313953e-03	3.16759349e-06
4.6001911e-05  	-2.26317956e-03	3.16765093e-06
4.6002123e-05  	-2.26321981e-03	3.16770903e-06
4.6002335e-05  	-2.26326027e-03	3.16776694e-06
4.6002548e-05  	-2.26330098e-03	3.16782564e-06
4.600276e-05   	-2.26334191e-03	3.16788428e-06
4.6002972e-05  	-2.26338309e-03	3.16794369e-06
4.6003185e-05  	-2.26342447e-03	3.16800306e-06
4.6003397e-05  	-2.26346607e-03	3.16806315e-06
4.6003609e-05  	-2.26350783e-03	3.16812321e-06
4.6003821e-05  	-2.26354976e-03	3.16818388e-06
4.6004034e-05  	-2.26359180e-03	3.16824445e-06
4.6004246e-05  	-2.26363393e-03	3.16830545e-06
4.6004458e-05  	-2.26367612e-03	3.16836626e-06
4.600467e-05   	-2.26371835e-03	3.16842731e-06
4.6004882e-05  	-2.26376060e-03	3.16848809e-06
4.6005095e-05  	-2.26380284e-03	3.16854898e-06
4.6005307e-05  	-2.26384507e-03	3.16860951e-06
4.6005519e-05  	-2.26388727e-03	3.16866999e-06
4.6005731e-05  	-2.26392943e-03	3.16873008e-06
4.6005943e-05  	-2.26397155e-03	3.16879009e-06
4.6006156e-05  	-2.26401362e-03	3.16884975e-06
4.6006368e-05  	-2.26405564e-03	3.16890927e-06
4.600658e-05   	-2.26409764e-03	3.16896846e-06
4.6006792e-05  	-2.26413956e-03	3.16902750e-06
4.6007004e-05  	-2.26418146e-03	3.16908623e-06
4.6007216e-05  	-2.26422330e-03	3.16914476e-06
4.6007428e-05  	-2.26426510e-03	3.16920297e-06
4.6007641e-05  	-2.26430687e-03	3.16926096e-06
4.6007853e-05  	-2.26434889e-03	3.16931871e-06
4.6008065e-05  	-2.26439169e-03	3.16937633e-06
4.6008277e-05  	-2.26443462e-03	3.16943376e-06
4.6008489e-05  	-2.26447727e-03	3.16949102e-06
4.6008701e-05  	-2.26451994e-03	3.16954807e-06
4.6008913e-05  	-2.26456251e-03	3.16960496e-06
4.6009125e-05  	-2.26460519e-03	3.16966165e-06
4.6009337e-05  	-2.26464774e-03	3.16971817e-06
4.6009549e-05  	-2.26469012e-03	3.16977454e-06
4.6009761e-05  	-2.26473244e-03	3.16983079e-06
4.6009973e-05  	-2.26477475e-03	3.16988692e-06
4.6010185e-05  	-2.26481704e-03	3.16994294e-06
4.6010397e-05  	-2.26485926e-03	3.16999887e-06
4.601061e-05   	-2.26490168e-03	3.17005472e-06
4.6010822e-05  	-2.26494481e-03	3.17011053e-06
4.6011034e-05  	-2.26498798e-03	3.17016629e-06
4.6011246e-05  	-2.26503097e-03	3.17022197e-06
4.6011458e-05  	-2.26507387e-03	3.17027758e-06
4.601167e-05   	-2.26511672e-03	3.17033309e-06
4.6011882e-05  	-2.26515951e-03	3.17038850e-06
4.6012094e-05  	-2.26520220e-03	3.17044384e-06
4.6012306e-05  	-2.26524481e-03	3.17049907e-06
4.6012518e-05  	-2.26528735e-03	3.17055424e-06
4.6012729e-05  	-2.26532985e-03	3.17060936e-06
4.6012941e-05  	-2.26537225e-03	3.17066443e-06
4.6013153e-05  	-2.26541463e-03	3.17071946e-06
4.6013365e-05  	-2.26545690e-03	3.17077448e-06
4.6013577e-05  	-2.26549915e-03	3.17082947e-06
4.6013789e-05  	-2.26554131e-03	3.17088449e-06
4.6014001e-05  	-2.26558340e-03	3.17093947e-06
4.6014213e-05  	-2.26562541e-03	3.17099447e-06
4.6014425e-05  	-2.26566740e-03	3.17104946e-06
4.6014637e-05  	-2.26570930e-03	3.17110447e-06
4.6014849e-05  	-2.26575113e-03	3.17115948e-06
4.6015061e-05  	-2.26579292e-03	3.17121449e-06
4.6015273e-05  	-2.26583463e-03	3.17126950e-06
4.6015485e-05  	-2.26587632e-03	3.17132451e-06
4.6015697e-05  	-2.26591793e-03	3.17137953e-06
4.6015908e-05  	-2.26595954e-03	3.17143456e-06
4.601612e-05   	-2.26600109e-03	3.17148964e-06
4.6016332e-05  	-2.26604262e-03	3.17154478e-06
4.6016544e-05  	-2.26608414e-03	3.17159997e-06
4.6016756e-05  	-2.26612562e-03	3.17165522e-06
4.6016968e-05  	-2.26616712e-03	3.17171055e-06
4.601718e-05   	-2.26620858e-03	3.17176597e-06
4.6017391e-05  	-2.26625008e-03	3.17182146e-06
4.6017603e-05  	-2.26629157e-03	3.17187706e-06
4.6017815e-05  	-2.26633308e-03	3.17193274e-06
4.6018027e-05  	-2.26637461e-03	3.17198853e-06
4.6018239e-05  	-2.26641604e-03	3.17204442e-06
4.6018451e-05  	-2.26645751e-03	3.17210037e-06
4.6018662e-05  	-2.26649912e-03	3.17215640e-06
4.6018874e-05  	-2.26654065e-03	3.17221253e-06
4.6019086e-05  	-2.26658208e-03	3.17226877e-06
4.6019298e-05  	-2.26662370e-03	3.17232511e-06
4.601951e-05   	-2.26666533e-03	3.17238156e-06
4.6019721e-05  	-2.26670703e-03	3.17243814e-06
4.6019933e-05  	-2.26674879e-03	3.17249487e-06
4.6020145e-05  	-2.26679063e-03	3.17255173e-06
4.6020357e-05  	-2.26683251e-03	3.17260874e-06
4.6020569e-05  	-2.26687449e-03	3.17266590e-06
4.602078e-05   	-2.26691652e-03	3.17272320e-06
4.6020992e-05  	-2.26695866e-03	3.17278065e-06
4.6021204e-05  	-2.26700083e-03	3.17283824e-06
4.6021416e-05  	-2.26704308e-03	3.17289594e-06
4.6021627e-05  	-2.26708547e-03	3.17295378e-06
4.6021839e-05  	-2.26712805e-03	3.17301191e-06
4.6022051e-05  	-2.26717072e-03	3.17307029e-06
4.6022263e-05  	-2.26721351e-03	3.17312880e-06
4.6022474e-05  	-2.26725642e-03	3.17318750e-06
4.6022686e-05  	-2.26729944e-03	3.17324639e-06
4.6022898e-05  	-2.26734252e-03	3.17330544e-06
4.6023109e-05  	-2.26738572e-03	3.17336469e-06
4.6023321e-05  	-2.26742899e-03	3.17342412e-06
4.6023533e-05  	-2.26747237e-03	3.17348376e-06
4.6023745e-05  	-2.26751584e-03	3.17354357e-06
4.6023956e-05  	-2.26755940e-03	3.17360363e-06
4.6024168e-05  	-2.26760305e-03	3.17366376e-06
4.602438e-05   	-2.26764679e-03	3.17372426e-06
4.6024591e-05  	-2.26769071e-03	3.17378476e-06
4.6024803e-05  	-2.26773469e-03	3.17384559e-06
4.6025015e-05  	-2.26777881e-03	3.17390648e-06
4.6025226e-05  	-2.26782302e-03	3.17396761e-06
4.6025438e-05  	-2.26786731e-03	3.17402887e-06
4.602565e-05   	-2.26791169e-03	3.17409032e-06
4.6025861e-05  	-2.26795616e-03	3.17415194e-06
4.6026073e-05  	-2.26800071e-03	3.17421376e-06
4.6026284e-05  	-2.26804534e-03	3.17427576e-06
4.6026496e-05  	-2.26809007e-03	3.17433795e-06
4.6026708e-05  	-2.26813488e-03	3.17440037e-06
4.6026919e-05  	-2.26817978e-03	3.17446299e-06
4.6027131e-05  	-2.26822476e-03	3.17452582e-06
4.6027342e-05  	-2.26826984e-03	3.17458888e-06
4.6027554e-05  	-2.26831506e-03	3.17465219e-06
4.6027766e-05  	-2.26836040e-03	3.17471574e-06
4.6027977e-05  	-2.26840587e-03	3.17477952e-06
4.6028189e-05  	-2.26845147e-03	3.17484353e-06
4.60284e-05    	-2.26849717e-03	3.17490773e-06
4.6028612e-05  	-2.26854297e-03	3.17497211e-06
4.6028823e-05  	-2.26858887e-03	3.17503667e-06
4.6029035e-05  	-2.26863485e-03	3.17510142e-06
4.6029246e-05  	-2.26868093e-03	3.17516634e-06
4.6029458e-05  	-2.26872708e-03	3.17523145e-06
4.6029669e-05  	-2.26877331e-03	3.17529671e-06
4.6029881e-05  	-2.26881962e-03	3.17536217e-06
4.6030092e-05  	-2.26886601e-03	3.17542783e-06
4.6030304e-05  	-2.26891247e-03	3.17549365e-06
4.6030515e-05  	-2.26895901e-03	3.17555965e-06
4.6030727e-05  	-2.26900562e-03	3.17562585e-06
4.6030938e-05  	-2.26905231e-03	3.17569224e-06
4.603115e-05   	-2.26909908e-03	3.17575883e-06
4.6031361e-05  	-2.26914593e-03	3.17582558e-06
4.6031573e-05  	-2.26919287e-03	3.17589253e-06
4.6031784e-05  	-2.26923990e-03	3.17595967e-06
4.6031995e-05  	-2.26928701e-03	3.17602701e-06
4.6032207e-05  	-2.26933421e-03	3.17609455e-06
4.6032418e-05  	-2.26938149e-03	3.17616227e-06
4.603263e-05   	-2.26942885e-03	3.17623018e-06
4.6032841e-05  	-2.26947629e-03	3.17629829e-06
4.6033052e-05  	-2.26952381e-03	3.17636659e-06
4.6033264e-05  	-2.26957140e-03	3.17643512e-06
4.6033475e-05  	-2.26961907e-03	3.17650386e-06
4.6033686e-05  	-2.26966682e-03	3.17657282e-06
4.6033898e-05  	-2.26971470e-03	3.17664198e-06
4.6034109e-05  	-2.26976268e-03	3.17671135e-06
4.603432e-05   	-2.26981075e-03	3.17678094e-06
4.6034532e-05  	-2.26985891e-03	3.17685071e-06
4.6034743e-05  	-2.26990721e-03	3.17692080e-06
4.6034954e-05  	-2.26995560e-03	3.17699111e-06
4.6035166e-05  	-2.27000408e-03	3.17706158e-06
4.6035377e-05  	-2.27005262e-03	3.17713221e-06
4.6035588e-05  	-2.27010125e-03	3.17720300e-06
4.6035799e-05  	-2.27014994e-03	3.17727394e-06
4.603601e-05   	-2.27019870e-03	3.17734507e-06
4.6036222e-05  	-2.27024752e-03	3.17741634e-06
4.6036433e-05  	-2.27029640e-03	3.17748777e-06
4.6036644e-05  	-2.27034535e-03	3.17755934e-06
4.6036855e-05  	-2.27039435e-03	3.17763108e-06
4.6037066e-05  	-2.27044344e-03	3.17770296e-06
4.6037278e-05  	-2.27049260e-03	3.17777501e-06
4.6037489e-05  	-2.27054184e-03	3.17784720e-06
4.60377e-05    	-2.27059116e-03	3.17791954e-06
4.6037911e-05  	-2.27064057e-03	3.17799202e-06
4.6038122e-05  	-2.27069006e-03	3.17806464e-06
4.6038333e-05  	-2.27073965e-03	3.17813737e-06
4.6038544e-05  	-2.27078933e-03	3.17821021e-06
4.6038755e-05  	-2.27083908e-03	3.17828317e-06
4.6038966e-05  	-2.27088893e-03	3.17835625e-06
4.6039177e-05  	-2.27093884e-03	3.17842939e-06
4.6039388e-05  	-2.27098881e-03	3.17850261e-06
4.6039599e-05  	-2.27103886e-03	3.17857591e-06
4.603981e-05   	-2.27108896e-03	3.17864927e-06
4.6040021e-05  	-2.27113950e-03	3.17872272e-06
4.6040232e-05  	-2.27119001e-03	3.17879627e-06
4.6040443e-05  	-2.27124061e-03	3.17886990e-06
4.6040654e-05  	-2.27129127e-03	3.17894360e-06
4.6040865e-05  	-2.27134199e-03	3.17901735e-06
4.6041076e-05  	-2.27139279e-03	3.17909117e-06
4.6041287e-05  	-2.27144368e-03	3.17916503e-06
4.6041498e-05  	-2.27149476e-03	3.17923896e-06
4.6041709e-05  	-2.27154611e-03	3.17931295e-06
4.604192e-05   	-2.27159752e-03	3.17938697e-06
4.6042131e-05  	-2.27164902e-03	3.17946105e-06
4.6042341e-05  	-2.27170052e-03	3.17953521e-06
4.6042552e-05  	-2.27175212e-03	3.17960935e-06
4.6042763e-05  	-2.27180380e-03	3.17968334e-06
4.6042974e-05  	-2.27185552e-03	3.17975722e-06
4.6043185e-05  	-2.27190732e-03	3.17983114e-06
4.6043395e-05  	-2.27195916e-03	3.17990517e-06
4.6043606e-05  	-2.27201106e-03	3.17997926e-06
4.6043817e-05  	-2.27206301e-03	3.18005339e-06
4.6044028e-05  	-2.27211507e-03	3.18012754e-06
4.6044238e-05  	-2.27216709e-03	3.18020173e-06
4.6044449e-05  	-2.27221919e-03	3.18027593e-06
4.604466e-05   	-2.27227131e-03	3.18035011e-06
4.604487e-05   	-2.27232346e-03	3.18042429e-06
4.6045081e-05  	-2.27237565e-03	3.18049844e-06
4.6045292e-05  	-2.27242783e-03	3.18057256e-06
4.6045502e-05  	-2.27248012e-03	3.18064663e-06
4.6045713e-05  	-2.27253239e-03	3.18072069e-06
4.6045924e-05  	-2.27258475e-03	3.18079472e-06
4.6046134e-05  	-2.27263714e-03	3.18086872e-06
4.6046345e-05  	-2.27268958e-03	3.18094269e-06
4.6046555e-05  	-2.27274207e-03	3.18101665e-06
4.6046766e-05  	-2.27279480e-03	3.18109059e-06
4.6046976e-05  	-2.27284757e-03	3.18116454e-06
4.6047187e-05  	-2.27290039e-03	3.18123848e-06
4.6047397e-05  	-2.27295320e-03	3.18131239e-06
4.6047608e-05  	-2.27300612e-03	3.18138627e-06
4.6047818e-05  	-2.27305897e-03	3.18146015e-06
4.6048029e-05  	-2.27311186e-03	3.18153398e-06
4.6048239e-05  	-2.27316475e-03	3.18160776e-06
4.6048449e-05  	-2.27321772e-03	3.18168149e-06
4.604866e-05   	-2.27327063e-03	3.18175519e-06
4.604887e-05   	-2.27332358e-03	3.18182883e-06
4.604908e-05   	-2.27337654e-03	3.18190241e-06
4.6049291e-05  	-2.27342958e-03	3.18197595e-06
4.6049501e-05  	-2.27348257e-03	3.18204946e-06
4.6049711e-05  	-2.27353559e-03	3.18212293e-06
4.6049922e-05  	-2.27358870e-03	3.18219636e-06
4.6050132e-05  	-2.27364176e-03	3.18226980e-06
4.6050342e-05  	-2.27369486e-03	3.18234321e-06
4.6050552e-05  	-2.27374806e-03	3.18241661e-06
4.6050763e-05  	-2.27380120e-03	3.18249002e-06
4.6050973e-05  	-2.27385439e-03	3.18256339e-06
4.6051183e-05  	-2.27390768e-03	3.18263675e-06
4.6051393e-05  	-2.27396089e-03	3.18271011e-06
4.6051603e-05  	-2.27401414e-03	3.18278345e-06
4.6051813e-05  	-2.27406755e-03	3.18285677e-06
4.6052024e-05  	-2.27412085e-03	3.18293010e-06
4.6052234e-05  	-2.27417425e-03	3.18300343e-06
4.6052444e-05  	-2.27422775e-03	3.18307674e-06
4.6052654e-05  	-2.27428124e-03	3.18315003e-06
4.6052864e-05  	-2.27433484e-03	3.18322334e-06
4.6053074e-05  	-2.27438841e-03	3.18329670e-06
4.6053284e-05  	-2.27444207e-03	3.18337011e-06
4.6053494e-05  	-2.27449586e-03	3.18344355e-06
4.6053704e-05  	-2.27454966e-03	3.18351703e-06
4.6053914e-05  	-2.27460357e-03	3.18359058e-06
4.6054124e-05  	-2.27465746e-03	3.18366421e-06
4.6054334e-05  	-2.27471142e-03	3.18373789e-06
4.6054544e-05  	-2.27476550e-03	3.18381166e-06
4.6054754e-05  	-2.27481954e-03	3.18388550e-06
4.6054964e-05  	-2.27487373e-03	3.18395942e-06
4.6055173e-05  	-2.27492788e-03	3.18403343e-06
4.6055383e-05  	-2.27498211e-03	3.18410749e-06
4.6055593e-05  	-2.27503645e-03	3.18418163e-06
4.6055803e-05  	-2.27509079e-03	3.18425586e-06
4.6056013e-05  	-2.27514522e-03	3.18433016e-06
4.6056223e-05  	-2.27519979e-03	3.18440456e-06
4.6056432e-05  	-2.27525436e-03	3.18447908e-06
4.6056642e-05  	-2.27530912e-03	3.18455370e-06
4.6056852e-05  	-2.27536386e-03	3.18462846e-06
4.6057062e-05  	-2.27541876e-03	3.18470331e-06
4.6057271e-05  	-2.27547380e-03	3.18477830e-06
4.6057481e-05  	-2.27552888e-03	3.18485343e-06
4.6057691e-05  	-2.27558414e-03	3.18492869e-06
4.6057901e-05  	-2.27563939e-03	3.18500410e-06
4.605811e-05   	-2.27569477e-03	3.18507961e-06
4.605832e-05   	-2.27575029e-03	3.18515525e-06
4.6058529e-05  	-2.27580583e-03	3.18523105e-06
4.6058739e-05  	-2.27586159e-03	3.18530699e-06
4.6058949e-05  	-2.27591736e-03	3.18538309e-06
4.6059158e-05  	-2.27597327e-03	3.18545932e-06
4.6059368e-05  	-2.27602936e-03	3.18553568e-06
4.6059577e-05  	-2.27608549e-03	3.18561221e-06
4.6059787e-05  	-2.27614184e-03	3.18568888e-06
4.6059997e-05  	-2.27619821e-03	3.18576571e-06
4.6060206e-05  	-2.27625472e-03	3.18584266e-06
4.6060416e-05  	-2.27631140e-03	3.18591976e-06
4.6060625e-05  	-2.27636810e-03	3.18599701e-06
4.6060835e-05  	-2.27642501e-03	3.18607440e-06
4.6061044e-05  	-2.27648190e-03	3.18615193e-06
4.6061253e-05  	-2.27653891e-03	3.18622958e-06
4.6061463e-05  	-2.27659606e-03	3.18630735e-06
4.6061672e-05  	-2.27665322e-03	3.18638527e-06
4.6061882e-05  	-2.27671055e-03	3.18646331e-06
4.6062091e-05  	-2.27676786e-03	3.18654147e-06
4.60623e-05    	-2.27682527e-03	3.18661974e-06
4.606251e-05   	-2.27688281e-03	3.18669812e-06
4.6062719e-05  	-2.27694032e-03	3.18677662e-06
4.6062929e-05  	-2.27699802e-03	3.18685523e-06
4.6063138e-05  	-2.27705574e-03	3.18693398e-06
4.6063347e-05  	-2.27711358e-03	3.18701281e-06
4.6063557e-05  	-2.27717158e-03	3.18709175e-06
4.6063766e-05  	-2.27722959e-03	3.18717084e-06
4.6063975e-05  	-2.27728780e-03	3.18725004e-06
4.6064184e-05  	-2.27734601e-03	3.18732939e-06
4.6064394e-05  	-2.27740432e-03	3.18740883e-06
4.6064603e-05  	-2.27746277e-03	3.18748838e-06
4.6064812e-05  	-2.27752122e-03	3.18756806e-06
4.6065021e-05  	-2.27757979e-03	3.18764786e-06
4.6065231e-05  	-2.27763849e-03	3.18772775e-06
4.606544e-05   	-2.27769721e-03	3.18780772e-06
4.6065649e-05  	-2.27775606e-03	3.18788778e-06
4.6065858e-05  	-2.27781489e-03	3.18796795e-06
4.6066067e-05  	-2.27787379e-03	3.18804818e-06
4.6066276e-05  	-2.27793282e-03	3.18812848e-06
4.6066486e-05  	-2.27799183e-03	3.18820886e-06
4.6066695e-05  	-2.27805094e-03	3.18828930e-06
4.6066904e-05  	-2.27811028e-03	3.18836977e-06
4.6067113e-05  	-2.27816973e-03	3.18845055e-06
4.6067322e-05  	-2.27822932e-03	3.18853151e-06
4.6067531e-05  	-2.27828890e-03	3.18861259e-06
4.606774e-05   	-2.27834859e-03	3.18869378e-06
4.6067949e-05  	-2.27840840e-03	3.18877510e-06
4.6068158e-05  	-2.27846822e-03	3.18885659e-06
4.6068368e-05  	-2.27852812e-03	3.18893820e-06
4.6068577e-05  	-2.27858816e-03	3.18901995e-06
4.6068786e-05  	-2.27864820e-03	3.18910185e-06
4.6068995e-05  	-2.27870834e-03	3.18918387e-06
4.6069204e-05  	-2.27876863e-03	3.18926603e-06
4.6069413e-05  	-2.27882892e-03	3.18934830e-06
4.6069622e-05  	-2.27888933e-03	3.18943067e-06
4.6069831e-05  	-2.27894989e-03	3.18951315e-06
4.607004e-05   	-2.27901047e-03	3.18959576e-06
4.6070249e-05  	-2.27907118e-03	3.18967847e-06
4.6070458e-05  	-2.27913204e-03	3.18976131e-06
4.6070667e-05  	-2.27919294e-03	3.18984431e-06
4.6070876e-05  	-2.27925394e-03	3.18992744e-06
4.6071084e-05  	-2.27931503e-03	3.19001067e-06
4.6071293e-05  	-2.27937627e-03	3.19009405e-06
4.6071502e-05  	-2.27943762e-03	3.19017756e-06
4.6071711e-05  	-2.27949905e-03	3.19026120e-06
4.607192e-05   	-2.27956058e-03	3.19034498e-06
4.6072129e-05  	-2.27962219e-03	3.19042889e-06
4.6072338e-05  	-2.27968387e-03	3.19051291e-06
4.6072547e-05  	-2.27974567e-03	3.19059707e-06
4.6072756e-05  	-2.27980769e-03	3.19068136e-06
4.6072965e-05  	-2.27986981e-03	3.19076577e-06
4.6073174e-05  	-2.27993196e-03	3.19085029e-06
4.6073382e-05  	-2.27999428e-03	3.19093494e-06
4.6073591e-05  	-2.28005673e-03	3.19101972e-06
4.60738e-05    	-2.28011922e-03	3.19110464e-06
4.6074009e-05  	-2.28018177e-03	3.19118971e-06
4.6074218e-05  	-2.28024439e-03	3.19127495e-06
4.6074427e-05  	-2.28030708e-03	3.19136035e-06
4.6074635e-05  	-2.28036982e-03	3.19144589e-06
4.6074844e-05  	-2.28043261e-03	3.19153159e-06
4.6075053e-05  	-2.28049547e-03	3.19161744e-06
4.6075262e-05  	-2.28055837e-03	3.19170344e-06
4.6075471e-05  	-2.28062132e-03	3.19178956e-06
4.607568e-05   	-2.28068433e-03	3.19187583e-06
4.6075888e-05  	-2.28074740e-03	3.19196223e-06
4.6076097e-05  	-2.28081053e-03	3.19204875e-06
4.6076306e-05  	-2.28087373e-03	3.19213540e-06
4.6076515e-05  	-2.28093701e-03	3.19222216e-06
4.6076724e-05  	-2.28100036e-03	3.19230906e-06
4.6076932e-05  	-2.28106381e-03	3.19239611e-06
4.6077141e-05  	-2.28112735e-03	3.19248332e-06
4.607735e-05   	-2.28119099e-03	3.19257069e-06
4.6077559e-05  	-2.28125472e-03	3.19265822e-06
4.6077767e-05  	-2.28131855e-03	3.19274593e-06
4.6077976e-05  	-2.28138258e-03	3.19283384e-06
4.6078185e-05  	-2.28144668e-03	3.19292194e-06
4.6078394e-05  	-2.28151087e-03	3.19301022e-06
4.6078602e-05  	-2.28157514e-03	3.19309867e-06
4.6078811e-05  	-2.28163949e-03	3.19318734e-06
4.607902e-05   	-2.28170392e-03	3.19327621e-06
4.6079229e-05  	-2.28176847e-03	3.19336524e-06
4.6079437e-05  	-2.28183314e-03	3.19345444e-06
4.6079646e-05  	-2.28189789e-03	3.19354380e-06
4.6079855e-05  	-2.28196275e-03	3.19363340e-06
4.6080063e-05  	-2.28202774e-03	3.19372328e-06
4.6080272e-05  	-2.28209282e-03	3.19381332e-06
4.6080481e-05  	-2.28215799e-03	3.19390355e-06
4.608069e-05   	-2.28222325e-03	3.19399395e-06
4.6080898e-05  	-2.28228859e-03	3.19408456e-06
4.6081107e-05  	-2.28235403e-03	3.19417538e-06
4.6081316e-05  	-2.28241955e-03	3.19426640e-06
4.6081524e-05  	-2.28248516e-03	3.19435762e-06
4.6081733e-05  	-2.28255085e-03	3.19444904e-06
4.6081942e-05  	-2.28261662e-03	3.19454065e-06
4.608215e-05   	-2.28268246e-03	3.19463244e-06
4.6082359e-05  	-2.28274838e-03	3.19472440e-06
4.6082568e-05  	-2.28281438e-03	3.19481652e-06
4.6082777e-05  	-2.28288047e-03	3.19490881e-06
4.6082985e-05  	-2.28294664e-03	3.19500126e-06
4.6083194e-05  	-2.28301297e-03	3.19509387e-06
4.6083403e-05  	-2.28307935e-03	3.19518666e-06
4.6083611e-05  	-2.28314584e-03	3.19527963e-06
4.608382e-05   	-2.28321243e-03	3.19537278e-06
4.6084029e-05  	-2.28327911e-03	3.19546611e-06
4.6084237e-05  	-2.28334590e-03	3.19555961e-06
4.6084446e-05  	-2.28341278e-03	3.19565328e-06
4.6084655e-05  	-2.28347975e-03	3.19574711e-06
4.6084863e-05  	-2.28354681e-03	3.19584111e-06
4.6085072e-05  	-2.28361396e-03	3.19593525e-06
4.608528e-05   	-2.28368120e-03	3.19602954e-06
4.6085489e-05  	-2.28374853e-03	3.19612398e-06
4.6085698e-05  	-2.28381595e-03	3.19621854e-06
4.6085906e-05  	-2.28388347e-03	3.19631324e-06
4.6086115e-05  	-2.28395111e-03	3.19640808e-06
4.6086324e-05  	-2.28401886e-03	3.19650308e-06
4.6086532e-05  	-2.28408674e-03	3.19659825e-06
4.6086741e-05  	-2.28415476e-03	3.19669362e-06
4.608695e-05   	-2.28422294e-03	3.19678921e-06
4.6087158e-05  	-2.28429127e-03	3.19688502e-06
4.6087367e-05  	-2.28435976e-03	3.19698106e-06
4.6087576e-05  	-2.28442841e-03	3.19707733e-06
4.6087784e-05  	-2.28449722e-03	3.19717384e-06
4.6087993e-05  	-2.28456619e-03	3.19727058e-06
4.6088201e-05  	-2.28463531e-03	3.19736755e-06
4.608841e-05   	-2.28470457e-03	3.19746472e-06
4.6088619e-05  	-2.28477398e-03	3.19756209e-06
4.6088827e-05  	-2.28484353e-03	3.19765963e-06
4.6089036e-05  	-2.28491323e-03	3.19775733e-06
4.6089244e-05  	-2.28498307e-03	3.19785520e-06
4.6089453e-05  	-2.28505307e-03	3.19795326e-06
4.6089662e-05  	-2.28512322e-03	3.19805152e-06
4.608987e-05   	-2.28519353e-03	3.19814998e-06
4.6090079e-05  	-2.28526401e-03	3.19824866e-06
4.6090287e-05  	-2.28533464e-03	3.19834755e-06
4.6090496e-05  	-2.28540544e-03	3.19844666e-06
4.6090705e-05  	-2.28547639e-03	3.19854600e-06
4.6090913e-05  	-2.28554748e-03	3.19864554e-06
4.6091122e-05  	-2.28561872e-03	3.19874530e-06
4.609133e-05   	-2.28569010e-03	3.19884526e-06
4.6091539e-05  	-2.28576162e-03	3.19894541e-06
4.6091747e-05  	-2.28583326e-03	3.19904576e-06
4.6091956e-05  	-2.28590504e-03	3.19914630e-06
4.6092165e-05  	-2.28597695e-03	3.19924701e-06
4.6092373e-05  	-2.28604900e-03	3.19934790e-06
4.6092582e-05  	-2.28612119e-03	3.19944897e-06
4.609279e-05   	-2.28619351e-03	3.19955023e-06
4.6092999e-05  	-2.28626597e-03	3.19965169e-06
4.6093207e-05  	-2.28633858e-03	3.19975335e-06
4.6093416e-05  	-2.28641133e-03	3.19985523e-06
4.6093625e-05  	-2.28648420e-03	3.19995731e-06
4.6093833e-05  	-2.28655721e-03	3.20005960e-06
4.6094042e-05  	-2.28663034e-03	3.20016209e-06
4.609425e-05   	-2.28670359e-03	3.20026480e-06
4.6094459e-05  	-2.28677695e-03	3.20036770e-06
4.6094667e-05  	-2.28685044e-03	3.20047079e-06
4.6094876e-05  	-2.28692405e-03	3.20057404e-06
4.6095084e-05  	-2.28699779e-03	3.20067747e-06
4.6095293e-05  	-2.28707168e-03	3.20078107e-06
4.6095501e-05  	-2.28714575e-03	3.20088485e-06
4.609571e-05   	-2.28722000e-03	3.20098885e-06
4.6095918e-05  	-2.28729444e-03	3.20109308e-06
4.6096127e-05  	-2.28736908e-03	3.20119753e-06
4.6096335e-05  	-2.28744392e-03	3.20130221e-06
4.6096544e-05  	-2.28751894e-03	3.20140711e-06
4.6096752e-05  	-2.28759414e-03	3.20151222e-06
4.6096961e-05  	-2.28766951e-03	3.20161753e-06
4.6097169e-05  	-2.28774503e-03	3.20172304e-06
4.6097378e-05  	-2.28782070e-03	3.20182871e-06
4.6097586e-05  	-2.28789649e-03	3.20193453e-06
4.6097795e-05  	-2.28797241e-03	3.20204045e-06
4.6098003e-05  	-2.28804844e-03	3.20214645e-06
4.6098212e-05  	-2.28812456e-03	3.20225252e-06
4.609842e-05   	-2.28820079e-03	3.20235865e-06
4.6098629e-05  	-2.28827712e-03	3.20246485e-06
4.6098837e-05  	-2.28835355e-03	3.20257112e-06
4.6099045e-05  	-2.28843007e-03	3.20267743e-06
4.6099254e-05  	-2.28850670e-03	3.20278381e-06
4.6099462e-05  	-2.28858346e-03	3.20289028e-06
4.6099671e-05  	-2.28866037e-03	3.20299689e-06
4.6099879e-05  	-2.28873743e-03	3.20310363e-06
4.6100088e-05  	-2.28881463e-03	3.20321048e-06
4.6100296e-05  	-2.28889197e-03	3.20331743e-06
4.6100504e-05  	-2.28896944e-03	3.20342447e-06
4.6100713e-05  	-2.28904705e-03	3.20353160e-06
4.6100921e-05  	-2.28912476e-03	3.20363877e-06
4.610113e-05   	-2.28920257e-03	3.20374595e-06
4.6101338e-05  	-2.28928046e-03	3.20385313e-06
4.6101546e-05  	-2.28935842e-03	3.20396030e-06
4.6101755e-05  	-2.28943646e-03	3.20406745e-06
4.6101963e-05  	-2.28951457e-03	3.20417458e-06
4.6102172e-05  	-2.28959272e-03	3.20428167e-06
4.610238e-05   	-2.28967093e-03	3.20438875e-06
4.6102588e-05  	-2.28974918e-03	3.20449579e-06
4.6102797e-05  	-2.28982747e-03	3.20460281e-06
4.6103005e-05  	-2.28990579e-03	3.20470980e-06
4.6103213e-05  	-2.28998412e-03	3.20481672e-06
4.6103422e-05  	-2.29006246e-03	3.20492352e-06
4.610363e-05   	-2.29014075e-03	3.20503018e-06
4.6103839e-05  	-2.29021897e-03	3.20513663e-06
4.6104047e-05  	-2.29029712e-03	3.20524285e-06
4.6104255e-05  	-2.29037519e-03	3.20534882e-06
4.6104463e-05  	-2.29045329e-03	3.20545455e-06
4.6104672e-05  	-2.29053138e-03	3.20556005e-06
4.610488e-05   	-2.29060933e-03	3.20566531e-06
4.6105088e-05  	-2.29068719e-03	3.20577035e-06
4.6105297e-05  	-2.29076497e-03	3.20587520e-06
4.6105505e-05  	-2.29084265e-03	3.20597987e-06
4.6105713e-05  	-2.29092025e-03	3.20608437e-06
4.6105922e-05  	-2.29099779e-03	3.20618874e-06
4.610613e-05   	-2.29107529e-03	3.20629302e-06
4.6106338e-05  	-2.29115280e-03	3.20639728e-06
4.6106546e-05  	-2.29123033e-03	3.20650148e-06
4.6106755e-05  	-2.29130788e-03	3.20660560e-06
4.6106963e-05  	-2.29138548e-03	3.20670969e-06
4.6107171e-05  	-2.29146317e-03	3.20681375e-06
4.6107379e-05  	-2.29154093e-03	3.20691779e-06
4.6107588e-05  	-2.29161878e-03	3.20702183e-06
4.6107796e-05  	-2.29169671e-03	3.20712586e-06
4.6108004e-05  	-2.29177470e-03	3.20722987e-06
4.6108212e-05  	-2.29185271e-03	3.20733383e-06
4.6108421e-05  	-2.29193075e-03	3.20743773e-06
4.6108629e-05  	-2.29200881e-03	3.20754155e-06
4.6108837e-05  	-2.29208684e-03	3.20764526e-06
4.6109045e-05  	-2.29216484e-03	3.20774883e-06
4.6109253e-05  	-2.29224278e-03	3.20785224e-06
4.6109461e-05  	-2.29232066e-03	3.20795550e-06
4.610967e-05   	-2.29239848e-03	3.20805859e-06
4.6109878e-05  	-2.29247636e-03	3.20816153e-06
4.6110086e-05  	-2.29255408e-03	3.20826436e-06
4.6110294e-05  	-2.29263198e-03	3.20836712e-06
4.6110502e-05  	-2.29270973e-03	3.20846987e-06
4.611071e-05   	-2.29278761e-03	3.20857262e-06
4.6110919e-05  	-2.29286561e-03	3.20867544e-06
4.6111127e-05  	-2.29294359e-03	3.20877835e-06
4.6111335e-05  	-2.29302173e-03	3.20888135e-06
4.6111543e-05  	-2.29310023e-03	3.20898454e-06
4.6111751e-05  	-2.29317876e-03	3.20908813e-06
4.6111959e-05  	-2.29325754e-03	3.20919205e-06
4.6112167e-05  	-2.29333644e-03	3.20929611e-06
4.6112375e-05  	-2.29341555e-03	3.20940056e-06
4.6112584e-05  	-2.29349485e-03	3.20950503e-06
4.6112792e-05  	-2.29357446e-03	3.20961008e-06
4.6113e-05     	-2.29365411e-03	3.20971496e-06
4.6113208e-05  	-2.29373402e-03	3.20982051e-06
4.6113416e-05  	-2.29381407e-03	3.20992582e-06
4.6113624e-05  	-2.29389435e-03	3.21003189e-06
4.6113832e-05  	-2.29397480e-03	3.21013764e-06
4.611404e-05   	-2.29405549e-03	3.21024425e-06
4.6114248e-05  	-2.29413637e-03	3.21035057e-06
4.6114456e-05  	-2.29421750e-03	3.21045781e-06
4.6114664e-05  	-2.29429883e-03	3.21056480e-06
4.6114872e-05  	-2.29438041e-03	3.21067266e-06
4.611508e-05   	-2.29446223e-03	3.21078040e-06
4.6115288e-05  	-2.29454434e-03	3.21088892e-06
4.6115496e-05  	-2.29462674e-03	3.21099749e-06
4.6115704e-05  	-2.29470947e-03	3.21110679e-06
4.6115912e-05  	-2.29479250e-03	3.21121623e-06
4.611612e-05   	-2.29487586e-03	3.21132634e-06
4.6116328e-05  	-2.29495956e-03	3.21143672e-06
4.6116536e-05  	-2.29504362e-03	3.21154774e-06
4.6116744e-05  	-2.29512804e-03	3.21165917e-06
4.6116952e-05  	-2.29521285e-03	3.21177122e-06
4.611716e-05   	-2.29529808e-03	3.21188383e-06
4.6117368e-05  	-2.29538373e-03	3.21199708e-06
4.6117576e-05  	-2.29546982e-03	3.21211089e-06
4.6117784e-05  	-2.29555630e-03	3.21222528e-06
4.6117992e-05  	-2.29564316e-03	3.21234015e-06
4.61182e-05    	-2.29573035e-03	3.21245549e-06
4.6118408e-05  	-2.29581780e-03	3.21257117e-06
4.6118616e-05  	-2.29590544e-03	3.21268715e-06
4.6118823e-05  	-2.29599324e-03	3.21280337e-06
4.6119031e-05  	-2.29608117e-03	3.21291983e-06
4.6119239e-05  	-2.29616921e-03	3.21303646e-06
4.6119447e-05  	-2.29625735e-03	3.21315327e-06
4.6119655e-05  	-2.29634555e-03	3.21327023e-06
4.6119863e-05  	-2.29643382e-03	3.21338736e-06
4.6120071e-05  	-2.29652215e-03	3.21350467e-06
4.6120279e-05  	-2.29661058e-03	3.21362221e-06
4.6120487e-05  	-2.29669915e-03	3.21374005e-06
4.6120694e-05  	-2.29678788e-03	3.21385819e-06
4.6120902e-05  	-2.29687682e-03	3.21397672e-06
4.612111e-05   	-2.29696600e-03	3.21409568e-06
4.6121318e-05  	-2.29705547e-03	3.21421512e-06
4.6121526e-05  	-2.29714523e-03	3.21433511e-06
4.6121734e-05  	-2.29723531e-03	3.21445564e-06
4.6121941e-05  	-2.29732570e-03	3.21457675e-06
4.6122149e-05  	-2.29741642e-03	3.21469843e-06
4.6122357e-05  	-2.29750745e-03	3.21482069e-06
4.6122565e-05  	-2.29759876e-03	3.21494349e-06
4.6122773e-05  	-2.29769034e-03	3.21506678e-06
4.612298e-05   	-2.29778215e-03	3.21519055e-06
4.6123188e-05  	-2.29787418e-03	3.21531472e-06
4.6123396e-05  	-2.29796639e-03	3.21543925e-06
4.6123604e-05  	-2.29805874e-03	3.21556406e-06
4.6123812e-05  	-2.29815121e-03	3.21568914e-06
4.6124019e-05  	-2.29824378e-03	3.21581448e-06
4.6124227e-05  	-2.29833644e-03	3.21594009e-06
4.6124435e-05  	-2.29842921e-03	3.21606590e-06
4.6124643e-05  	-2.29852209e-03	3.21619192e-06
4.612485e-05   	-2.29861504e-03	3.21631815e-06
4.6125058e-05  	-2.29870811e-03	3.21644480e-06
4.6125266e-05  	-2.29880128e-03	3.21657173e-06
4.6125474e-05  	-2.29889452e-03	3.21669889e-06
4.6125681e-05  	-2.29898784e-03	3.21682633e-06
4.6125889e-05  	-2.29908128e-03	3.21695406e-06
4.6126097e-05  	-2.29917483e-03	3.21708208e-06
4.6126304e-05  	-2.29926849e-03	3.21721038e-06
4.6126512e-05  	-2.29936228e-03	3.21733899e-06
4.612672e-05   	-2.29945620e-03	3.21746792e-06
4.6126928e-05  	-2.29955026e-03	3.21759718e-06
4.6127135e-05  	-2.29964446e-03	3.21772678e-06
4.6127343e-05  	-2.29973881e-03	3.21785674e-06
4.6127551e-05  	-2.29983330e-03	3.21798706e-06
4.6127758e-05  	-2.29992795e-03	3.21811777e-06
4.6127966e-05  	-2.30002277e-03	3.21824886e-06
4.6128174e-05  	-2.30011772e-03	3.21838032e-06
4.6128381e-05  	-2.30021284e-03	3.21851214e-06
4.6128589e-05  	-2.30030812e-03	3.21864432e-06
4.6128797e-05  	-2.30040354e-03	3.21877681e-06
4.6129004e-05  	-2.30049911e-03	3.21890961e-06
4.6129212e-05  	-2.30059479e-03	3.21904266e-06
4.612942e-05   	-2.30069060e-03	3.21917596e-06
4.6129627e-05  	-2.30078651e-03	3.21930947e-06
4.6129835e-05  	-2.30088253e-03	3.21944323e-06
4.6130042e-05  	-2.30097864e-03	3.21957721e-06
4.613025e-05   	-2.30107483e-03	3.21971138e-06
4.6130458e-05  	-2.30117107e-03	3.21984575e-06
4.6130665e-05  	-2.30126751e-03	3.21998040e-06
4.6130873e-05  	-2.30136394e-03	3.22011528e-06
4.6131081e-05  	-2.30146047e-03	3.22025037e-06
4.6131288e-05  	-2.30155708e-03	3.22038565e-06
4.6131496e-05  	-2.30165389e-03	3.22052110e-06
4.6131703e-05  	-2.30175097e-03	3.22065676e-06
4.6131911e-05  	-2.30184795e-03	3.22079263e-06
4.6132119e-05  	-2.30194512e-03	3.22092874e-06
4.6132326e-05  	-2.30204235e-03	3.22106508e-06
4.6132534e-05  	-2.30213970e-03	3.22120166e-06
4.6132741e-05  	-2.30223716e-03	3.22133849e-06
4.6132949e-05  	-2.30233475e-03	3.22147558e-06
4.6133156e-05  	-2.30243248e-03	3.22161295e-06