# Region type : faceZone nozzleOutletZone
# Faces  :     3013
# Area   :     6.30029605e-09
# Time         	sum(rhoPhi)	sum(phi)
1.0000186e-05  	-2.64248606e-03	3.69401512e-06
1.0000372e-05  	-2.64253011e-03	3.69407183e-06
1.0000557e-05  	-2.64257133e-03	3.69412885e-06
1.0000743e-05  	-2.64261278e-03	3.69418633e-06
1.0000929e-05  	-2.64265452e-03	3.69424428e-06
1.0001115e-05  	-2.64269652e-03	3.69430270e-06
1.0001301e-05  	-2.64273878e-03	3.69436152e-06
1.0001486e-05  	-2.64278129e-03	3.69442081e-06
1.0001672e-05  	-2.64282407e-03	3.69448052e-06
1.0001858e-05  	-2.64286706e-03	3.69454067e-06
1.0002044e-05  	-2.64291035e-03	3.69460124e-06
1.000223e-05   	-2.64295392e-03	3.69466226e-06
1.0002416e-05  	-2.64299776e-03	3.69472370e-06
1.0002601e-05  	-2.64304187e-03	3.69478555e-06
1.0002787e-05  	-2.64308624e-03	3.69484781e-06
1.0002973e-05  	-2.64313087e-03	3.69491046e-06
1.0003159e-05  	-2.64317575e-03	3.69497347e-06
1.0003345e-05  	-2.64322088e-03	3.69503680e-06
1.0003531e-05  	-2.64326634e-03	3.69510050e-06
1.0003716e-05  	-2.64331230e-03	3.69516456e-06
1.0003902e-05  	-2.64335846e-03	3.69522896e-06
1.0004088e-05  	-2.64340474e-03	3.69529374e-06
1.0004274e-05  	-2.64345129e-03	3.69535889e-06
1.000446e-05   	-2.64349813e-03	3.69542437e-06
1.0004646e-05  	-2.64354525e-03	3.69549017e-06
1.0004831e-05  	-2.64359267e-03	3.69555636e-06
1.0005017e-05  	-2.64364040e-03	3.69562296e-06
1.0005203e-05  	-2.64368839e-03	3.69568990e-06
1.0005389e-05  	-2.64373667e-03	3.69575719e-06
1.0005575e-05  	-2.64378523e-03	3.69582480e-06
1.0005761e-05  	-2.64383404e-03	3.69589271e-06
1.0005947e-05  	-2.64388312e-03	3.69596092e-06
1.0006132e-05  	-2.64393246e-03	3.69602941e-06
1.0006318e-05  	-2.64398204e-03	3.69609815e-06
1.0006504e-05  	-2.64403188e-03	3.69616716e-06
1.000669e-05   	-2.64408197e-03	3.69623641e-06
1.0006876e-05  	-2.64413231e-03	3.69630586e-06
1.0007062e-05  	-2.64418287e-03	3.69637552e-06
1.0007248e-05  	-2.64423367e-03	3.69644537e-06
1.0007433e-05  	-2.64428468e-03	3.69651539e-06
1.0007619e-05  	-2.64433591e-03	3.69658562e-06
1.0007805e-05  	-2.64438738e-03	3.69665608e-06
1.0007991e-05  	-2.64443914e-03	3.69672672e-06
1.0008177e-05  	-2.64449129e-03	3.69679719e-06
1.0008363e-05  	-2.64454364e-03	3.69686748e-06
1.0008549e-05  	-2.64459611e-03	3.69693806e-06
1.0008735e-05  	-2.64464878e-03	3.69700888e-06
1.0008921e-05  	-2.64470173e-03	3.69708000e-06
1.0009107e-05  	-2.64475492e-03	3.69715139e-06
1.0009292e-05  	-2.64480831e-03	3.69722301e-06
1.0009478e-05  	-2.64486191e-03	3.69729488e-06
1.0009664e-05  	-2.64491575e-03	3.69736698e-06
1.000985e-05   	-2.64496974e-03	3.69743933e-06
1.0010036e-05  	-2.64502397e-03	3.69751191e-06
1.0010222e-05  	-2.64507841e-03	3.69758473e-06
1.0010408e-05  	-2.64513306e-03	3.69765780e-06
1.0010594e-05  	-2.64518795e-03	3.69773129e-06
1.001078e-05   	-2.64524302e-03	3.69780499e-06
1.0010966e-05  	-2.64529826e-03	3.69787890e-06
1.0011152e-05  	-2.64535369e-03	3.69795304e-06
1.0011338e-05  	-2.64540928e-03	3.69802738e-06
1.0011524e-05  	-2.64546506e-03	3.69810195e-06
1.001171e-05   	-2.64552103e-03	3.69817685e-06
1.0011895e-05  	-2.64557719e-03	3.69825201e-06
1.0012081e-05  	-2.64563353e-03	3.69832744e-06
1.0012267e-05  	-2.64569008e-03	3.69840315e-06
1.0012453e-05  	-2.64574682e-03	3.69847914e-06
1.0012639e-05  	-2.64580379e-03	3.69855542e-06
1.0012825e-05  	-2.64586097e-03	3.69863199e-06
1.0013011e-05  	-2.64591835e-03	3.69870886e-06
1.0013197e-05  	-2.64597594e-03	3.69878603e-06
1.0013383e-05  	-2.64603375e-03	3.69886348e-06
1.0013569e-05  	-2.64609178e-03	3.69894123e-06
1.0013755e-05  	-2.64615003e-03	3.69901929e-06
1.0013941e-05  	-2.64620850e-03	3.69909757e-06
1.0014127e-05  	-2.64626718e-03	3.69917607e-06
1.0014313e-05  	-2.64632614e-03	3.69925481e-06
1.0014499e-05  	-2.64638554e-03	3.69933382e-06
1.0014685e-05  	-2.64644522e-03	3.69941308e-06
1.0014871e-05  	-2.64650514e-03	3.69949261e-06
1.0015057e-05  	-2.64656528e-03	3.69957239e-06
1.0015243e-05  	-2.64662565e-03	3.69965243e-06
1.0015429e-05  	-2.64668626e-03	3.69973274e-06
1.0015615e-05  	-2.64674711e-03	3.69981332e-06
1.0015801e-05  	-2.64680821e-03	3.69989418e-06
1.0015987e-05  	-2.64686954e-03	3.69997534e-06
1.0016173e-05  	-2.64693113e-03	3.70005681e-06
1.0016359e-05  	-2.64699293e-03	3.70013856e-06
1.0016545e-05  	-2.64705497e-03	3.70022062e-06
1.0016731e-05  	-2.64711725e-03	3.70030298e-06
1.0016917e-05  	-2.64717976e-03	3.70038566e-06
1.0017103e-05  	-2.64724251e-03	3.70046866e-06
1.0017289e-05  	-2.64730550e-03	3.70055200e-06
1.0017475e-05  	-2.64736876e-03	3.70063568e-06
1.0017661e-05  	-2.64743208e-03	3.70071970e-06
1.0017847e-05  	-2.64749576e-03	3.70080408e-06
1.0018033e-05  	-2.64755979e-03	3.70088883e-06
1.0018219e-05  	-2.64762410e-03	3.70097396e-06
1.0018405e-05  	-2.64768870e-03	3.70105944e-06
1.0018591e-05  	-2.64775362e-03	3.70114534e-06
1.0018777e-05  	-2.64781884e-03	3.70123173e-06
1.0018963e-05  	-2.64788435e-03	3.70131852e-06
1.0019149e-05  	-2.64795016e-03	3.70140572e-06
1.0019335e-05  	-2.64801627e-03	3.70149334e-06
1.0019521e-05  	-2.64808270e-03	3.70158139e-06
1.0019708e-05  	-2.64814943e-03	3.70166985e-06
1.0019894e-05  	-2.64821647e-03	3.70175877e-06
1.002008e-05   	-2.64828383e-03	3.70184814e-06
1.0020266e-05  	-2.64835150e-03	3.70193795e-06
1.0020452e-05  	-2.64841949e-03	3.70202818e-06
1.0020638e-05  	-2.64848781e-03	3.70211887e-06
1.0020824e-05  	-2.64855646e-03	3.70221009e-06
1.002101e-05   	-2.64862547e-03	3.70230184e-06
1.0021196e-05  	-2.64869489e-03	3.70239408e-06
1.0021382e-05  	-2.64876471e-03	3.70248686e-06
1.0021568e-05  	-2.64883488e-03	3.70258018e-06
1.0021754e-05  	-2.64890553e-03	3.70267440e-06
1.002194e-05   	-2.64897659e-03	3.70276925e-06
1.0022127e-05  	-2.64904806e-03	3.70286476e-06
1.0022313e-05  	-2.64911994e-03	3.70296093e-06
1.0022499e-05  	-2.64919223e-03	3.70305778e-06
1.0022685e-05  	-2.64926496e-03	3.70315535e-06
1.0022871e-05  	-2.64933810e-03	3.70325359e-06
1.0023057e-05  	-2.64941163e-03	3.70335250e-06
1.0023243e-05  	-2.64948556e-03	3.70345209e-06
1.0023429e-05  	-2.64955991e-03	3.70355232e-06
1.0023615e-05  	-2.64963464e-03	3.70365324e-06
1.0023801e-05  	-2.64970980e-03	3.70375481e-06
1.0023988e-05  	-2.64978536e-03	3.70385702e-06
1.0024174e-05  	-2.64986131e-03	3.70395983e-06
1.002436e-05   	-2.64993765e-03	3.70406321e-06
1.0024546e-05  	-2.65001436e-03	3.70416713e-06
1.0024732e-05  	-2.65009143e-03	3.70427157e-06
1.0024918e-05  	-2.65016886e-03	3.70437655e-06
1.0025104e-05  	-2.65024664e-03	3.70448204e-06
1.002529e-05   	-2.65032476e-03	3.70458795e-06
1.0025477e-05  	-2.65040320e-03	3.70469427e-06
1.0025663e-05  	-2.65048198e-03	3.70480101e-06
1.0025849e-05  	-2.65056108e-03	3.70490809e-06
1.0026035e-05  	-2.65064049e-03	3.70501550e-06
1.0026221e-05  	-2.65072021e-03	3.70512327e-06
1.0026407e-05  	-2.65080025e-03	3.70523141e-06
1.0026593e-05  	-2.65088062e-03	3.70533987e-06
1.002678e-05   	-2.65096133e-03	3.70544871e-06
1.0026966e-05  	-2.65104235e-03	3.70555791e-06
1.0027152e-05  	-2.65112368e-03	3.70566745e-06
1.0027338e-05  	-2.65120533e-03	3.70577728e-06
1.0027524e-05  	-2.65128731e-03	3.70588746e-06
1.002771e-05   	-2.65136963e-03	3.70599798e-06
1.0027897e-05  	-2.65145230e-03	3.70610885e-06
1.0028083e-05  	-2.65153532e-03	3.70622010e-06
1.0028269e-05  	-2.65161872e-03	3.70633172e-06
1.0028455e-05  	-2.65170249e-03	3.70644373e-06
1.0028641e-05  	-2.65178685e-03	3.70655614e-06
1.0028827e-05  	-2.65187182e-03	3.70666894e-06
1.0029014e-05  	-2.65195722e-03	3.70678214e-06
1.00292e-05    	-2.65204300e-03	3.70689575e-06
1.0029386e-05  	-2.65212917e-03	3.70700975e-06
1.0029572e-05  	-2.65221571e-03	3.70712413e-06
1.0029758e-05  	-2.65230263e-03	3.70723890e-06
1.0029945e-05  	-2.65238992e-03	3.70735407e-06
1.0030131e-05  	-2.65247789e-03	3.70746965e-06
1.0030317e-05  	-2.65256651e-03	3.70758569e-06
1.0030503e-05  	-2.65265555e-03	3.70770212e-06
1.0030689e-05  	-2.65274501e-03	3.70781900e-06
1.0030876e-05  	-2.65283482e-03	3.70793628e-06
1.0031062e-05  	-2.65292507e-03	3.70805404e-06
1.0031248e-05  	-2.65301569e-03	3.70817222e-06
1.0031434e-05  	-2.65310674e-03	3.70829089e-06
1.003162e-05   	-2.65319817e-03	3.70840999e-06
1.0031807e-05  	-2.65329004e-03	3.70852958e-06
1.0031993e-05  	-2.65338230e-03	3.70864961e-06
1.0032179e-05  	-2.65347500e-03	3.70877018e-06
1.0032365e-05  	-2.65356813e-03	3.70889125e-06
1.0032552e-05  	-2.65366170e-03	3.70901285e-06
1.0032738e-05  	-2.65375571e-03	3.70913495e-06
1.0032924e-05  	-2.65385016e-03	3.70925760e-06
1.003311e-05   	-2.65394506e-03	3.70938075e-06
1.0033297e-05  	-2.65404040e-03	3.70950444e-06
1.0033483e-05  	-2.65413617e-03	3.70962865e-06
1.0033669e-05  	-2.65423236e-03	3.70975338e-06
1.0033855e-05  	-2.65432897e-03	3.70987865e-06
1.0034042e-05  	-2.65442601e-03	3.71000443e-06
1.0034228e-05  	-2.65452346e-03	3.71013074e-06
1.0034414e-05  	-2.65462130e-03	3.71025752e-06
1.0034601e-05  	-2.65471954e-03	3.71038480e-06
1.0034787e-05  	-2.65481817e-03	3.71051257e-06
1.0034973e-05  	-2.65491721e-03	3.71064084e-06
1.0035159e-05  	-2.65501663e-03	3.71076957e-06
1.0035346e-05  	-2.65511646e-03	3.71089879e-06
1.0035532e-05  	-2.65521667e-03	3.71102844e-06
1.0035718e-05  	-2.65531753e-03	3.71115872e-06
1.0035905e-05  	-2.65541884e-03	3.71128987e-06
1.0036091e-05  	-2.65552061e-03	3.71142158e-06
1.0036277e-05  	-2.65562282e-03	3.71155386e-06
1.0036464e-05  	-2.65572552e-03	3.71168681e-06
1.003665e-05   	-2.65582868e-03	3.71182040e-06
1.0036836e-05  	-2.65593231e-03	3.71195460e-06
1.0037023e-05  	-2.65603641e-03	3.71208946e-06
1.0037209e-05  	-2.65614098e-03	3.71222494e-06
1.0037395e-05  	-2.65624604e-03	3.71236110e-06
1.0037582e-05  	-2.65635156e-03	3.71249791e-06
1.0037768e-05  	-2.65645754e-03	3.71263533e-06
1.0037954e-05  	-2.65656399e-03	3.71277344e-06
1.0038141e-05  	-2.65667090e-03	3.71291220e-06
1.0038327e-05  	-2.65677830e-03	3.71305165e-06
1.0038513e-05  	-2.65688615e-03	3.71319176e-06
1.00387e-05    	-2.65699448e-03	3.71333252e-06
1.0038886e-05  	-2.65710329e-03	3.71347396e-06
1.0039073e-05  	-2.65721258e-03	3.71361605e-06
1.0039259e-05  	-2.65732236e-03	3.71375884e-06
1.0039445e-05  	-2.65743262e-03	3.71390233e-06
1.0039632e-05  	-2.65754337e-03	3.71404651e-06
1.0039818e-05  	-2.65765463e-03	3.71419143e-06
1.0040005e-05  	-2.65776637e-03	3.71433708e-06
1.0040191e-05  	-2.65787863e-03	3.71448343e-06
1.0040377e-05  	-2.65799139e-03	3.71463050e-06
1.0040564e-05  	-2.65810466e-03	3.71477831e-06
1.004075e-05   	-2.65821845e-03	3.71492682e-06
1.0040937e-05  	-2.65833279e-03	3.71507607e-06
1.0041123e-05  	-2.65844765e-03	3.71522606e-06
1.0041309e-05  	-2.65856304e-03	3.71537676e-06
1.0041496e-05  	-2.65867895e-03	3.71552822e-06
1.0041682e-05  	-2.65879540e-03	3.71568045e-06
1.0041869e-05  	-2.65891236e-03	3.71583340e-06
1.0042055e-05  	-2.65902985e-03	3.71598711e-06
1.0042242e-05  	-2.65914786e-03	3.71614160e-06
1.0042428e-05  	-2.65926640e-03	3.71629684e-06
1.0042615e-05  	-2.65938548e-03	3.71645286e-06
1.0042801e-05  	-2.65950507e-03	3.71660966e-06
1.0042988e-05  	-2.65962516e-03	3.71676717e-06
1.0043174e-05  	-2.65974577e-03	3.71692543e-06
1.0043361e-05  	-2.65986690e-03	3.71708447e-06
1.0043547e-05  	-2.65998854e-03	3.71724423e-06
1.0043734e-05  	-2.66011070e-03	3.71740474e-06
1.004392e-05   	-2.66023337e-03	3.71756601e-06
1.0044107e-05  	-2.66035657e-03	3.71772801e-06
1.0044293e-05  	-2.66048030e-03	3.71789077e-06
1.004448e-05   	-2.66060455e-03	3.71805430e-06
1.0044666e-05  	-2.66072934e-03	3.71821857e-06
1.0044853e-05  	-2.66085466e-03	3.71838361e-06
1.0045039e-05  	-2.66098051e-03	3.71854939e-06
1.0045226e-05  	-2.66110688e-03	3.71871589e-06
1.0045412e-05  	-2.66123377e-03	3.71888315e-06
1.0045599e-05  	-2.66136116e-03	3.71905113e-06
1.0045785e-05  	-2.66148912e-03	3.71921979e-06
1.0045972e-05  	-2.66161763e-03	3.71938915e-06
1.0046158e-05  	-2.66174657e-03	3.71955914e-06
1.0046345e-05  	-2.66187596e-03	3.71972978e-06
1.0046532e-05  	-2.66200585e-03	3.71990114e-06
1.0046718e-05  	-2.66213624e-03	3.72007326e-06
1.0046905e-05  	-2.66226700e-03	3.72024591e-06
1.0047091e-05  	-2.66239826e-03	3.72041925e-06
1.0047278e-05  	-2.66253008e-03	3.72059333e-06
1.0047464e-05  	-2.66266252e-03	3.72076814e-06
1.0047651e-05  	-2.66279541e-03	3.72094364e-06
1.0047838e-05  	-2.66292873e-03	3.72111988e-06
1.0048024e-05  	-2.66306256e-03	3.72129683e-06
1.0048211e-05  	-2.66319692e-03	3.72147447e-06
1.0048397e-05  	-2.66333181e-03	3.72165294e-06
1.0048584e-05  	-2.66346726e-03	3.72183220e-06
1.0048771e-05  	-2.66360328e-03	3.72201218e-06
1.0048957e-05  	-2.66373993e-03	3.72219295e-06
1.0049144e-05  	-2.66387714e-03	3.72237450e-06
1.004933e-05   	-2.66401493e-03	3.72255682e-06
1.0049517e-05  	-2.66415334e-03	3.72274010e-06
1.0049704e-05  	-2.66429234e-03	3.72292425e-06
1.004989e-05   	-2.66443188e-03	3.72310911e-06
1.0050077e-05  	-2.66457197e-03	3.72329470e-06
1.0050264e-05  	-2.66471263e-03	3.72348108e-06
1.005045e-05   	-2.66485383e-03	3.72366822e-06
1.0050637e-05  	-2.66499556e-03	3.72385610e-06
1.0050824e-05  	-2.66513781e-03	3.72404468e-06
1.005101e-05   	-2.66528058e-03	3.72423398e-06
1.0051197e-05  	-2.66542384e-03	3.72442398e-06
1.0051384e-05  	-2.66556758e-03	3.72461462e-06
1.005157e-05   	-2.66571179e-03	3.72480592e-06
1.0051757e-05  	-2.66585647e-03	3.72499785e-06
1.0051944e-05  	-2.66600164e-03	3.72519045e-06
1.005213e-05   	-2.66614729e-03	3.72538370e-06
1.0052317e-05  	-2.66629340e-03	3.72557756e-06
1.0052504e-05  	-2.66643999e-03	3.72577207e-06
1.005269e-05   	-2.66658706e-03	3.72596722e-06
1.0052877e-05  	-2.66673463e-03	3.72616312e-06
1.0053064e-05  	-2.66688271e-03	3.72635966e-06
1.005325e-05   	-2.66703130e-03	3.72655685e-06
1.0053437e-05  	-2.66718042e-03	3.72675473e-06
1.0053624e-05  	-2.66733005e-03	3.72695326e-06
1.0053811e-05  	-2.66748019e-03	3.72715246e-06
1.0053997e-05  	-2.66763085e-03	3.72735233e-06
1.0054184e-05  	-2.66778202e-03	3.72755287e-06
1.0054371e-05  	-2.66793371e-03	3.72775413e-06
1.0054557e-05  	-2.66808592e-03	3.72795605e-06
1.0054744e-05  	-2.66823863e-03	3.72815860e-06
1.0054931e-05  	-2.66839186e-03	3.72836182e-06
1.0055118e-05  	-2.66854560e-03	3.72856568e-06
1.0055304e-05  	-2.66869986e-03	3.72877020e-06
1.0055491e-05  	-2.66885461e-03	3.72897535e-06
1.0055678e-05  	-2.66900988e-03	3.72918116e-06
1.0055865e-05  	-2.66916564e-03	3.72938758e-06
1.0056051e-05  	-2.66932190e-03	3.72959463e-06
1.0056238e-05  	-2.66947865e-03	3.72980228e-06
1.0056425e-05  	-2.66963589e-03	3.73001059e-06
1.0056612e-05  	-2.66979363e-03	3.73021952e-06
1.0056798e-05  	-2.66995188e-03	3.73042911e-06
1.0056985e-05  	-2.67011064e-03	3.73063935e-06
1.0057172e-05  	-2.67026993e-03	3.73085023e-06
1.0057359e-05  	-2.67042973e-03	3.73106180e-06
1.0057545e-05  	-2.67059005e-03	3.73127401e-06
1.0057732e-05  	-2.67075090e-03	3.73148694e-06
1.0057919e-05  	-2.67091235e-03	3.73170056e-06
1.0058106e-05  	-2.67107447e-03	3.73191460e-06
1.0058292e-05  	-2.67123711e-03	3.73212910e-06
1.0058479e-05  	-2.67140030e-03	3.73234441e-06
1.0058666e-05  	-2.67156401e-03	3.73256050e-06
1.0058853e-05  	-2.67172826e-03	3.73277738e-06
1.0059039e-05  	-2.67189307e-03	3.73299510e-06
1.0059226e-05  	-2.67205842e-03	3.73321365e-06
1.0059413e-05  	-2.67222433e-03	3.73343301e-06
1.00596e-05    	-2.67239078e-03	3.73365321e-06
1.0059786e-05  	-2.67255778e-03	3.73387421e-06
1.0059973e-05  	-2.67272532e-03	3.73409605e-06
1.006016e-05   	-2.67289340e-03	3.73431871e-06
1.0060347e-05  	-2.67306202e-03	3.73454220e-06
1.0060534e-05  	-2.67323119e-03	3.73476654e-06
1.006072e-05   	-2.67340093e-03	3.73499173e-06
1.0060907e-05  	-2.67357122e-03	3.73521771e-06
1.0061094e-05  	-2.67374205e-03	3.73544448e-06
1.0061281e-05  	-2.67391345e-03	3.73567203e-06
1.0061467e-05  	-2.67408541e-03	3.73590035e-06
1.0061654e-05  	-2.67425794e-03	3.73612944e-06
1.0061841e-05  	-2.67443104e-03	3.73635929e-06
1.0062028e-05  	-2.67460471e-03	3.73658989e-06
1.0062215e-05  	-2.67477895e-03	3.73682128e-06
1.0062401e-05  	-2.67495376e-03	3.73705342e-06
1.0062588e-05  	-2.67512912e-03	3.73728639e-06
1.0062775e-05  	-2.67530505e-03	3.73752013e-06
1.0062962e-05  	-2.67548156e-03	3.73775464e-06
1.0063149e-05  	-2.67565864e-03	3.73798994e-06
1.0063335e-05  	-2.67583629e-03	3.73822602e-06
1.0063522e-05  	-2.67601450e-03	3.73846289e-06
1.0063709e-05  	-2.67619330e-03	3.73870056e-06
1.0063896e-05  	-2.67637271e-03	3.73893905e-06
1.0064083e-05  	-2.67655271e-03	3.73917833e-06
1.0064269e-05  	-2.67673328e-03	3.73941844e-06
1.0064456e-05  	-2.67691445e-03	3.73965934e-06
1.0064643e-05  	-2.67709627e-03	3.73990107e-06
1.006483e-05   	-2.67727868e-03	3.74014360e-06
1.0065017e-05  	-2.67746169e-03	3.74038695e-06
1.0065203e-05  	-2.67764533e-03	3.74063112e-06
1.006539e-05   	-2.67782957e-03	3.74087610e-06
1.0065577e-05  	-2.67801439e-03	3.74112190e-06
1.0065764e-05  	-2.67819989e-03	3.74136854e-06
1.006595e-05   	-2.67838612e-03	3.74161603e-06
1.0066137e-05  	-2.67857296e-03	3.74186439e-06
1.0066324e-05  	-2.67876044e-03	3.74211364e-06
1.0066511e-05  	-2.67894844e-03	3.74236376e-06
1.0066698e-05  	-2.67913706e-03	3.74261478e-06
1.0066884e-05  	-2.67932633e-03	3.74286675e-06
1.0067071e-05  	-2.67951632e-03	3.74311966e-06
1.0067258e-05  	-2.67970706e-03	3.74337358e-06
1.0067445e-05  	-2.67989851e-03	3.74362854e-06
1.0067632e-05  	-2.68009079e-03	3.74388488e-06
1.0067818e-05  	-2.68028380e-03	3.74414239e-06
1.0068005e-05  	-2.68047756e-03	3.74440104e-06
1.0068192e-05  	-2.68067204e-03	3.74466083e-06
1.0068379e-05  	-2.68086728e-03	3.74492183e-06
1.0068566e-05  	-2.68106326e-03	3.74518403e-06
1.0068752e-05  	-2.68125999e-03	3.74544743e-06
1.0068939e-05  	-2.68145748e-03	3.74571200e-06
1.0069126e-05  	-2.68165569e-03	3.74597776e-06
1.0069313e-05  	-2.68185466e-03	3.74624471e-06
1.0069499e-05  	-2.68205434e-03	3.74651280e-06
1.0069686e-05  	-2.68225475e-03	3.74678203e-06
1.0069873e-05  	-2.68245586e-03	3.74705232e-06
1.007006e-05   	-2.68265774e-03	3.74732364e-06
1.0070247e-05  	-2.68286028e-03	3.74759592e-06
1.0070433e-05  	-2.68306350e-03	3.74786925e-06
1.007062e-05   	-2.68326730e-03	3.74814346e-06
1.0070807e-05  	-2.68347172e-03	3.74841851e-06
1.0070994e-05  	-2.68367672e-03	3.74869432e-06
1.007118e-05   	-2.68388227e-03	3.74897085e-06
1.0071367e-05  	-2.68408837e-03	3.74924820e-06
1.0071554e-05  	-2.68429508e-03	3.74952628e-06
1.0071741e-05  	-2.68450241e-03	3.74980522e-06
1.0071927e-05  	-2.68471032e-03	3.75008485e-06
1.0072114e-05  	-2.68491890e-03	3.75036544e-06
1.0072301e-05  	-2.68512805e-03	3.75064676e-06
1.0072488e-05  	-2.68533790e-03	3.75092902e-06
1.0072674e-05  	-2.68554845e-03	3.75121215e-06
1.0072861e-05  	-2.68575970e-03	3.75149623e-06
1.0073048e-05  	-2.68597162e-03	3.75178122e-06
1.0073234e-05  	-2.68618421e-03	3.75206709e-06
1.0073421e-05  	-2.68639748e-03	3.75235389e-06
1.0073608e-05  	-2.68661141e-03	3.75264160e-06
1.0073795e-05  	-2.68682608e-03	3.75293030e-06
1.0073981e-05  	-2.68704150e-03	3.75321997e-06
1.0074168e-05  	-2.68725767e-03	3.75351063e-06
1.0074355e-05  	-2.68747464e-03	3.75380230e-06
1.0074541e-05  	-2.68769269e-03	3.75409504e-06
1.0074728e-05  	-2.68791159e-03	3.75438882e-06
1.0074915e-05  	-2.68813125e-03	3.75468365e-06
1.0075102e-05  	-2.68835169e-03	3.75497955e-06
1.0075288e-05  	-2.68857287e-03	3.75527649e-06
1.0075475e-05  	-2.68879474e-03	3.75557441e-06
1.0075662e-05  	-2.68901736e-03	3.75587340e-06
1.0075848e-05  	-2.68924070e-03	3.75617339e-06
1.0076035e-05  	-2.68946478e-03	3.75647438e-06
1.0076222e-05  	-2.68968959e-03	3.75677639e-06
1.0076408e-05  	-2.68991532e-03	3.75707939e-06
1.0076595e-05  	-2.69014212e-03	3.75738345e-06
1.0076782e-05  	-2.69036974e-03	3.75768856e-06
1.0076968e-05  	-2.69059811e-03	3.75799469e-06
1.0077155e-05  	-2.69082720e-03	3.75830185e-06
1.0077342e-05  	-2.69105703e-03	3.75861002e-06
1.0077528e-05  	-2.69128759e-03	3.75891918e-06
1.0077715e-05  	-2.69151887e-03	3.75922938e-06
1.0077902e-05  	-2.69175088e-03	3.75954056e-06
1.0078088e-05  	-2.69198359e-03	3.75985270e-06
1.0078275e-05  	-2.69221698e-03	3.76016574e-06
1.0078462e-05  	-2.69245108e-03	3.76047970e-06
1.0078648e-05  	-2.69268588e-03	3.76079461e-06
1.0078835e-05  	-2.69292139e-03	3.76111044e-06
1.0079021e-05  	-2.69315761e-03	3.76142724e-06
1.0079208e-05  	-2.69339453e-03	3.76174498e-06
1.0079395e-05  	-2.69363216e-03	3.76206363e-06
1.0079581e-05  	-2.69387048e-03	3.76238311e-06
1.0079768e-05  	-2.69410949e-03	3.76270344e-06
1.0079954e-05  	-2.69434913e-03	3.76302452e-06
1.0080141e-05  	-2.69458944e-03	3.76334643e-06
1.0080328e-05  	-2.69483040e-03	3.76366912e-06
1.0080514e-05  	-2.69507202e-03	3.76399260e-06
1.0080701e-05  	-2.69531425e-03	3.76431679e-06
1.0080887e-05  	-2.69555712e-03	3.76464173e-06
1.0081074e-05  	-2.69580061e-03	3.76496741e-06
1.0081261e-05  	-2.69604470e-03	3.76529381e-06
1.0081447e-05  	-2.69628947e-03	3.76562088e-06
1.0081634e-05  	-2.69653502e-03	3.76594913e-06
1.008182e-05   	-2.69678121e-03	3.76627829e-06
1.0082007e-05  	-2.69702805e-03	3.76660831e-06
1.0082193e-05  	-2.69727556e-03	3.76693918e-06
1.008238e-05   	-2.69752371e-03	3.76727093e-06
1.0082566e-05  	-2.69777254e-03	3.76760353e-06
1.0082753e-05  	-2.69802200e-03	3.76793705e-06
1.0082939e-05  	-2.69827208e-03	3.76827138e-06
1.0083126e-05  	-2.69852285e-03	3.76860667e-06
1.0083312e-05  	-2.69877434e-03	3.76894285e-06
1.0083499e-05  	-2.69902648e-03	3.76927991e-06
1.0083685e-05  	-2.69927925e-03	3.76961783e-06
1.0083872e-05  	-2.69953267e-03	3.76995663e-06
1.0084058e-05  	-2.69978669e-03	3.77029628e-06
1.0084245e-05  	-2.70004138e-03	3.77063690e-06
1.0084431e-05  	-2.70029670e-03	3.77097838e-06
1.0084618e-05  	-2.70055268e-03	3.77132075e-06
1.0084804e-05  	-2.70080930e-03	3.77166399e-06
1.008499e-05   	-2.70106660e-03	3.77200817e-06
1.0085177e-05  	-2.70132457e-03	3.77235333e-06
1.0085363e-05  	-2.70158322e-03	3.77269939e-06
1.008555e-05   	-2.70184241e-03	3.77304643e-06
1.0085736e-05  	-2.70210218e-03	3.77339436e-06
1.0085923e-05  	-2.70236276e-03	3.77374327e-06
1.0086109e-05  	-2.70262403e-03	3.77409313e-06
1.0086295e-05  	-2.70288579e-03	3.77444386e-06
1.0086482e-05  	-2.70314829e-03	3.77479556e-06
1.0086668e-05  	-2.70341147e-03	3.77514815e-06
1.0086854e-05  	-2.70367523e-03	3.77550171e-06
1.0087041e-05  	-2.70393970e-03	3.77585621e-06
1.0087227e-05  	-2.70420479e-03	3.77621165e-06
1.0087413e-05  	-2.70447061e-03	3.77656806e-06
1.00876e-05    	-2.70473702e-03	3.77692540e-06
1.0087786e-05  	-2.70500408e-03	3.77728369e-06
1.0087972e-05  	-2.70527191e-03	3.77764294e-06
1.0088158e-05  	-2.70554034e-03	3.77800318e-06
1.0088345e-05  	-2.70580946e-03	3.77836449e-06
1.0088531e-05  	-2.70607942e-03	3.77872682e-06
1.0088717e-05  	-2.70635008e-03	3.77909018e-06
1.0088903e-05  	-2.70662143e-03	3.77945470e-06
1.0089089e-05  	-2.70689351e-03	3.77982038e-06
1.0089276e-05  	-2.70716636e-03	3.78018731e-06
1.0089462e-05  	-2.70743992e-03	3.78055536e-06
1.0089648e-05  	-2.70771416e-03	3.78092440e-06
1.0089834e-05  	-2.70798908e-03	3.78129447e-06
1.009002e-05   	-2.70826465e-03	3.78166553e-06
1.0090206e-05  	-2.70854093e-03	3.78203762e-06
1.0090392e-05  	-2.70881788e-03	3.78241073e-06
1.0090579e-05  	-2.70909549e-03	3.78278482e-06
1.0090765e-05  	-2.70937377e-03	3.78315983e-06
1.0090951e-05  	-2.70965276e-03	3.78353592e-06
1.0091137e-05  	-2.70993266e-03	3.78391298e-06
1.0091323e-05  	-2.71021287e-03	3.78429108e-06
1.0091509e-05  	-2.71049402e-03	3.78467023e-06
1.0091695e-05  	-2.71077591e-03	3.78505042e-06
1.0091881e-05  	-2.71105853e-03	3.78543161e-06
1.0092067e-05  	-2.71134188e-03	3.78581381e-06
1.0092253e-05  	-2.71162593e-03	3.78619698e-06
1.0092439e-05  	-2.71191076e-03	3.78658118e-06
1.0092625e-05  	-2.71219634e-03	3.78696641e-06
1.009281e-05   	-2.71248255e-03	3.78735255e-06
1.0092996e-05  	-2.71276938e-03	3.78773948e-06
1.0093182e-05  	-2.71305692e-03	3.78812735e-06
1.0093368e-05  	-2.71334507e-03	3.78851604e-06
1.0093554e-05  	-2.71363388e-03	3.78890583e-06
1.009374e-05   	-2.71392331e-03	3.78929630e-06
1.0093926e-05  	-2.71421337e-03	3.78968770e-06
1.0094112e-05  	-2.71450404e-03	3.79007984e-06
1.0094297e-05  	-2.71479534e-03	3.79047286e-06
1.0094483e-05  	-2.71508728e-03	3.79086673e-06
1.0094669e-05  	-2.71537989e-03	3.79126145e-06
1.0094855e-05  	-2.71567314e-03	3.79165705e-06
1.009504e-05   	-2.71596700e-03	3.79205348e-06
1.0095226e-05  	-2.71626148e-03	3.79245076e-06
1.0095412e-05  	-2.71655660e-03	3.79284889e-06
1.0095598e-05  	-2.71685236e-03	3.79324786e-06
1.0095783e-05  	-2.71714877e-03	3.79364766e-06
1.0095969e-05  	-2.71744576e-03	3.79404829e-06
1.0096154e-05  	-2.71774339e-03	3.79444978e-06
1.009634e-05   	-2.71804167e-03	3.79485220e-06
1.0096526e-05  	-2.71834056e-03	3.79525539e-06
1.0096711e-05  	-2.71864005e-03	3.79565938e-06
1.0096897e-05  	-2.71894011e-03	3.79606419e-06
1.0097082e-05  	-2.71924076e-03	3.79646977e-06
1.0097268e-05  	-2.71954198e-03	3.79687614e-06
1.0097453e-05  	-2.71984377e-03	3.79728331e-06
1.0097639e-05  	-2.72014631e-03	3.79769124e-06
1.0097824e-05  	-2.72044944e-03	3.79809995e-06
1.009801e-05   	-2.72075312e-03	3.79850942e-06
1.0098195e-05  	-2.72105737e-03	3.79891970e-06
1.0098381e-05  	-2.72136219e-03	3.79933082e-06
1.0098566e-05  	-2.72166761e-03	3.79974277e-06
1.0098751e-05  	-2.72197363e-03	3.80015558e-06
1.0098937e-05  	-2.72228022e-03	3.80056921e-06
1.0099122e-05  	-2.72258736e-03	3.80098358e-06
1.0099307e-05  	-2.72289505e-03	3.80139874e-06
1.0099493e-05  	-2.72320327e-03	3.80181468e-06
1.0099678e-05  	-2.72351202e-03	3.80223133e-06
1.0099863e-05  	-2.72382131e-03	3.80264882e-06
1.0100049e-05  	-2.72413113e-03	3.80306708e-06
1.0100234e-05  	-2.72444153e-03	3.80348610e-06
1.0100419e-05  	-2.72475247e-03	3.80390592e-06
1.0100604e-05  	-2.72506395e-03	3.80432650e-06
1.0100789e-05  	-2.72537594e-03	3.80474780e-06
1.0100974e-05  	-2.72568848e-03	3.80516985e-06
1.0101159e-05  	-2.72600167e-03	3.80559266e-06
1.0101345e-05  	-2.72631543e-03	3.80601619e-06
1.010153e-05   	-2.72662970e-03	3.80644046e-06
1.0101715e-05  	-2.72694444e-03	3.80686543e-06
1.01019e-05    	-2.72725969e-03	3.80729111e-06
1.0102085e-05  	-2.72757546e-03	3.80771754e-06
1.010227e-05   	-2.72789167e-03	3.80814463e-06
1.0102455e-05  	-2.72820835e-03	3.80857237e-06
1.010264e-05   	-2.72852552e-03	3.80900077e-06
1.0102824e-05  	-2.72884313e-03	3.80942980e-06
1.0103009e-05  	-2.72916124e-03	3.80985956e-06
1.0103194e-05  	-2.72947987e-03	3.81029000e-06
1.0103379e-05  	-2.72979897e-03	3.81072110e-06
1.0103564e-05  	-2.73011853e-03	3.81115289e-06
1.0103749e-05  	-2.73043854e-03	3.81158526e-06
1.0103933e-05  	-2.73075904e-03	3.81201832e-06
1.0104118e-05  	-2.73107996e-03	3.81245197e-06
1.0104303e-05  	-2.73140132e-03	3.81288626e-06
1.0104487e-05  	-2.73172312e-03	3.81332113e-06
1.0104672e-05  	-2.73204539e-03	3.81375670e-06
1.0104857e-05  	-2.73236813e-03	3.81419295e-06
1.0105041e-05  	-2.73269133e-03	3.81462989e-06
1.0105226e-05  	-2.73301499e-03	3.81506745e-06
1.010541e-05   	-2.73333914e-03	3.81550568e-06
1.0105595e-05  	-2.73366377e-03	3.81594464e-06
1.0105779e-05  	-2.73398887e-03	3.81638423e-06
1.0105964e-05  	-2.73431449e-03	3.81682453e-06
1.0106148e-05  	-2.73464059e-03	3.81726550e-06
1.0106332e-05  	-2.73496717e-03	3.81770718e-06
1.0106517e-05  	-2.73529421e-03	3.81814951e-06
1.0106701e-05  	-2.73562172e-03	3.81859255e-06
1.0106885e-05  	-2.73594971e-03	3.81903623e-06
1.010707e-05   	-2.73627820e-03	3.81948057e-06
1.0107254e-05  	-2.73660713e-03	3.81992549e-06
1.0107438e-05  	-2.73693647e-03	3.82037102e-06
1.0107622e-05  	-2.73726618e-03	3.82081712e-06
1.0107807e-05  	-2.73759627e-03	3.82126376e-06
1.0107991e-05  	-2.73792672e-03	3.82171092e-06
1.0108175e-05  	-2.73825769e-03	3.82215868e-06
1.0108359e-05  	-2.73858912e-03	3.82260705e-06
1.0108543e-05  	-2.73892100e-03	3.82305624e-06
1.0108727e-05  	-2.73925333e-03	3.82350607e-06
1.0108911e-05  	-2.73958601e-03	3.82395660e-06
1.0109095e-05  	-2.73991921e-03	3.82440777e-06
1.0109279e-05  	-2.74025287e-03	3.82485955e-06
1.0109463e-05  	-2.74058690e-03	3.82531192e-06
1.0109647e-05  	-2.74092123e-03	3.82576481e-06
1.0109831e-05  	-2.74125578e-03	3.82621821e-06
1.0110014e-05  	-2.74159082e-03	3.82667215e-06
1.0110198e-05  	-2.74192622e-03	3.82712668e-06
1.0110382e-05  	-2.74226204e-03	3.82758177e-06
1.0110566e-05  	-2.74259823e-03	3.82803739e-06
1.0110749e-05  	-2.74293488e-03	3.82849367e-06
1.0110933e-05  	-2.74327196e-03	3.82895059e-06
1.0111117e-05  	-2.74360946e-03	3.82940809e-06
1.01113e-05    	-2.74394738e-03	3.82986619e-06
1.0111484e-05  	-2.74428560e-03	3.83032479e-06
1.0111668e-05  	-2.74462409e-03	3.83078381e-06
1.0111851e-05  	-2.74496286e-03	3.83124324e-06
1.0112035e-05  	-2.74530185e-03	3.83170302e-06
1.0112218e-05  	-2.74564109e-03	3.83216315e-06
1.0112402e-05  	-2.74598057e-03	3.83262370e-06
1.0112585e-05  	-2.74632028e-03	3.83308458e-06
1.0112768e-05  	-2.74666026e-03	3.83354579e-06
1.0112952e-05  	-2.74700055e-03	3.83400750e-06
1.0113135e-05  	-2.74734115e-03	3.83446970e-06
1.0113318e-05  	-2.74768206e-03	3.83493236e-06
1.0113502e-05  	-2.74802326e-03	3.83539548e-06
1.0113685e-05  	-2.74836481e-03	3.83585912e-06
1.0113868e-05  	-2.74870660e-03	3.83632315e-06
1.0114051e-05  	-2.74904864e-03	3.83678757e-06
1.0114234e-05  	-2.74939092e-03	3.83725238e-06
1.0114418e-05  	-2.74973348e-03	3.83771767e-06
1.0114601e-05  	-2.75007628e-03	3.83818339e-06
1.0114784e-05  	-2.75041932e-03	3.83864952e-06
1.0114967e-05  	-2.75076262e-03	3.83911605e-06
1.011515e-05   	-2.75110615e-03	3.83958301e-06
1.0115333e-05  	-2.75144995e-03	3.84005039e-06
1.0115516e-05  	-2.75179405e-03	3.84051826e-06
1.0115698e-05  	-2.75213848e-03	3.84098669e-06
1.0115881e-05  	-2.75248328e-03	3.84145571e-06
1.0116064e-05  	-2.75282841e-03	3.84192524e-06
1.0116247e-05  	-2.75317390e-03	3.84239536e-06
1.011643e-05   	-2.75351968e-03	3.84286593e-06
1.0116612e-05  	-2.75386573e-03	3.84333698e-06
1.0116795e-05  	-2.75421205e-03	3.84380848e-06
1.0116978e-05  	-2.75455860e-03	3.84428045e-06
1.011716e-05   	-2.75490542e-03	3.84475287e-06
1.0117343e-05  	-2.75525245e-03	3.84522568e-06
1.0117526e-05  	-2.75559968e-03	3.84569884e-06
1.0117708e-05  	-2.75594709e-03	3.84617234e-06
1.0117891e-05  	-2.75629466e-03	3.84664616e-06
1.0118073e-05  	-2.75664243e-03	3.84712036e-06