# Region type : faceZone nozzleOutletZone
# Faces  :     3013
# Area   :     6.30029605e-09
# Time         	sum(rhoPhi)	sum(phi)
2.2000203e-05  	-2.40933738e-03	3.37239420e-06
2.2000405e-05  	-2.40936074e-03	3.37242630e-06
2.2000608e-05  	-2.40938036e-03	3.37245779e-06
2.2000811e-05  	-2.40939991e-03	3.37248973e-06
2.2001014e-05  	-2.40941939e-03	3.37252107e-06
2.2001216e-05  	-2.40943885e-03	3.37255296e-06
2.2001419e-05  	-2.40945836e-03	3.37258428e-06
2.2001622e-05  	-2.40947786e-03	3.37261624e-06
2.2001825e-05  	-2.40949727e-03	3.37264764e-06
2.2002027e-05  	-2.40951672e-03	3.37267964e-06
2.200223e-05   	-2.40953625e-03	3.37271109e-06
2.2002433e-05  	-2.40955579e-03	3.37274320e-06
2.2002636e-05  	-2.40957526e-03	3.37277476e-06
2.2002838e-05  	-2.40959476e-03	3.37280689e-06
2.2003041e-05  	-2.40961437e-03	3.37283851e-06
2.2003244e-05  	-2.40963407e-03	3.37287070e-06
2.2003447e-05  	-2.40965396e-03	3.37290240e-06
2.2003649e-05  	-2.40967364e-03	3.37293460e-06
2.2003852e-05  	-2.40969332e-03	3.37296631e-06
2.2004055e-05  	-2.40971312e-03	3.37299848e-06
2.2004257e-05  	-2.40973288e-03	3.37303020e-06
2.200446e-05   	-2.40975259e-03	3.37306238e-06
2.2004663e-05  	-2.40977230e-03	3.37309409e-06
2.2004866e-05  	-2.40979202e-03	3.37312624e-06
2.2005068e-05  	-2.40981180e-03	3.37315793e-06
2.2005271e-05  	-2.40983157e-03	3.37319009e-06
2.2005474e-05  	-2.40985134e-03	3.37322180e-06
2.2005677e-05  	-2.40987104e-03	3.37325395e-06
2.2005879e-05  	-2.40989072e-03	3.37328560e-06
2.2006082e-05  	-2.40991039e-03	3.37331767e-06
2.2006285e-05  	-2.40993002e-03	3.37334924e-06
2.2006488e-05  	-2.40994961e-03	3.37338118e-06
2.200669e-05   	-2.40996921e-03	3.37341260e-06
2.2006893e-05  	-2.40998873e-03	3.37344437e-06
2.2007096e-05  	-2.41000812e-03	3.37347566e-06
2.2007299e-05  	-2.41002751e-03	3.37350724e-06
2.2007501e-05  	-2.41004683e-03	3.37353834e-06
2.2007704e-05  	-2.41006610e-03	3.37356967e-06
2.2007907e-05  	-2.41008532e-03	3.37360060e-06
2.200811e-05   	-2.41010449e-03	3.37363163e-06
2.2008312e-05  	-2.41012364e-03	3.37366245e-06
2.2008515e-05  	-2.41014278e-03	3.37369319e-06
2.2008718e-05  	-2.41016188e-03	3.37372381e-06
2.2008921e-05  	-2.41018098e-03	3.37375428e-06
2.2009123e-05  	-2.41020018e-03	3.37378463e-06
2.2009326e-05  	-2.41021938e-03	3.37381489e-06
2.2009529e-05  	-2.41023848e-03	3.37384504e-06
2.2009732e-05  	-2.41025758e-03	3.37387522e-06
2.2009934e-05  	-2.41027665e-03	3.37390521e-06
2.2010137e-05  	-2.41029569e-03	3.37393523e-06
2.201034e-05   	-2.41031470e-03	3.37396498e-06
2.2010543e-05  	-2.41033367e-03	3.37399483e-06
2.2010745e-05  	-2.41035260e-03	3.37402434e-06
2.2010948e-05  	-2.41037148e-03	3.37405402e-06
2.2011151e-05  	-2.41039031e-03	3.37408325e-06
2.2011354e-05  	-2.41040910e-03	3.37411274e-06
2.2011556e-05  	-2.41042784e-03	3.37414174e-06
2.2011759e-05  	-2.41044650e-03	3.37417100e-06
2.2011962e-05  	-2.41046545e-03	3.37419977e-06
2.2012165e-05  	-2.41048409e-03	3.37422877e-06
2.2012368e-05  	-2.41050256e-03	3.37425730e-06
2.201257e-05   	-2.41052133e-03	3.37428610e-06
2.2012773e-05  	-2.41053981e-03	3.37431447e-06
2.2012976e-05  	-2.41055816e-03	3.37434308e-06
2.2013179e-05  	-2.41057680e-03	3.37437130e-06
2.2013381e-05  	-2.41059518e-03	3.37439973e-06
2.2013584e-05  	-2.41061344e-03	3.37442779e-06
2.2013787e-05  	-2.41063204e-03	3.37445608e-06
2.201399e-05   	-2.41065041e-03	3.37448406e-06
2.2014192e-05  	-2.41066905e-03	3.37451230e-06
2.2014395e-05  	-2.41068746e-03	3.37454024e-06
2.2014598e-05  	-2.41070600e-03	3.37456838e-06
2.2014801e-05  	-2.41072428e-03	3.37459626e-06
2.2015004e-05  	-2.41074277e-03	3.37462429e-06
2.2015206e-05  	-2.41076129e-03	3.37465211e-06
2.2015409e-05  	-2.41077981e-03	3.37468005e-06
2.2015612e-05  	-2.41079834e-03	3.37470778e-06
2.2015815e-05  	-2.41081690e-03	3.37473560e-06
2.2016017e-05  	-2.41083570e-03	3.37476324e-06
2.201622e-05   	-2.41085454e-03	3.37479088e-06
2.2016423e-05  	-2.41087333e-03	3.37481835e-06
2.2016626e-05  	-2.41089208e-03	3.37484576e-06
2.2016829e-05  	-2.41091079e-03	3.37487308e-06
2.2017031e-05  	-2.41092949e-03	3.37490034e-06
2.2017234e-05  	-2.41094818e-03	3.37492754e-06
2.2017437e-05  	-2.41096686e-03	3.37495467e-06
2.201764e-05   	-2.41098551e-03	3.37498172e-06
2.2017842e-05  	-2.41100413e-03	3.37500868e-06
2.2018045e-05  	-2.41102270e-03	3.37503550e-06
2.2018248e-05  	-2.41104122e-03	3.37506219e-06
2.2018451e-05  	-2.41105981e-03	3.37508879e-06
2.2018654e-05  	-2.41107872e-03	3.37511532e-06
2.2018856e-05  	-2.41109771e-03	3.37514177e-06
2.2019059e-05  	-2.41111668e-03	3.37516814e-06
2.2019262e-05  	-2.41113565e-03	3.37519444e-06
2.2019465e-05  	-2.41115462e-03	3.37522067e-06
2.2019667e-05  	-2.41117358e-03	3.37524685e-06
2.201987e-05   	-2.41119253e-03	3.37527295e-06
2.2020073e-05  	-2.41121190e-03	3.37529906e-06
2.2020276e-05  	-2.41123149e-03	3.37532520e-06
2.2020479e-05  	-2.41125065e-03	3.37535132e-06
2.2020681e-05  	-2.41127010e-03	3.37537746e-06
2.2020884e-05  	-2.41128981e-03	3.37540363e-06
2.2021087e-05  	-2.41130951e-03	3.37542982e-06
2.202129e-05   	-2.41132921e-03	3.37545599e-06
2.2021492e-05  	-2.41134892e-03	3.37548214e-06
2.2021695e-05  	-2.41136819e-03	3.37550820e-06
2.2021898e-05  	-2.41138797e-03	3.37553426e-06
2.2022101e-05  	-2.41140780e-03	3.37556028e-06
2.2022304e-05  	-2.41142756e-03	3.37558626e-06
2.2022506e-05  	-2.41144727e-03	3.37561219e-06
2.2022709e-05  	-2.41146694e-03	3.37563807e-06
2.2022912e-05  	-2.41148657e-03	3.37566389e-06
2.2023115e-05  	-2.41150617e-03	3.37568965e-06
2.2023318e-05  	-2.41152579e-03	3.37571535e-06
2.202352e-05   	-2.41154536e-03	3.37574098e-06
2.2023723e-05  	-2.41156489e-03	3.37576655e-06
2.2023926e-05  	-2.41158439e-03	3.37579206e-06
2.2024129e-05  	-2.41160386e-03	3.37581755e-06
2.2024332e-05  	-2.41162330e-03	3.37584296e-06
2.2024534e-05  	-2.41164270e-03	3.37586832e-06
2.2024737e-05  	-2.41166209e-03	3.37589365e-06
2.202494e-05   	-2.41168144e-03	3.37591890e-06
2.2025143e-05  	-2.41170078e-03	3.37594413e-06
2.2025346e-05  	-2.41172011e-03	3.37596934e-06
2.2025548e-05  	-2.41173946e-03	3.37599457e-06
2.2025751e-05  	-2.41175882e-03	3.37601982e-06
2.2025954e-05  	-2.41177818e-03	3.37604507e-06
2.2026157e-05  	-2.41179754e-03	3.37607033e-06
2.202636e-05   	-2.41181689e-03	3.37609557e-06
2.2026562e-05  	-2.41183624e-03	3.37612080e-06
2.2026765e-05  	-2.41185558e-03	3.37614601e-06
2.2026968e-05  	-2.41187490e-03	3.37617119e-06
2.2027171e-05  	-2.41189423e-03	3.37619636e-06
2.2027373e-05  	-2.41191355e-03	3.37622151e-06
2.2027576e-05  	-2.41193287e-03	3.37624665e-06
2.2027779e-05  	-2.41195219e-03	3.37627177e-06
2.2027982e-05  	-2.41197150e-03	3.37629690e-06
2.2028185e-05  	-2.41199083e-03	3.37632202e-06
2.2028387e-05  	-2.41201016e-03	3.37634714e-06
2.202859e-05   	-2.41202950e-03	3.37637225e-06
2.2028793e-05  	-2.41204884e-03	3.37639736e-06
2.2028996e-05  	-2.41206819e-03	3.37642244e-06
2.2029198e-05  	-2.41208753e-03	3.37644750e-06
2.2029401e-05  	-2.41210686e-03	3.37647255e-06
2.2029604e-05  	-2.41212621e-03	3.37649760e-06
2.2029807e-05  	-2.41214556e-03	3.37652265e-06
2.2030009e-05  	-2.41216492e-03	3.37654774e-06
2.2030212e-05  	-2.41218433e-03	3.37657285e-06
2.2030415e-05  	-2.41220378e-03	3.37659799e-06
2.2030618e-05  	-2.41222326e-03	3.37662316e-06
2.203082e-05   	-2.41224279e-03	3.37664839e-06
2.2031023e-05  	-2.41226238e-03	3.37667366e-06
2.2031226e-05  	-2.41228200e-03	3.37669899e-06
2.2031428e-05  	-2.41230164e-03	3.37672433e-06
2.2031631e-05  	-2.41232130e-03	3.37674970e-06
2.2031834e-05  	-2.41234099e-03	3.37677510e-06
2.2032037e-05  	-2.41236071e-03	3.37680056e-06
2.2032239e-05  	-2.41238045e-03	3.37682605e-06
2.2032442e-05  	-2.41240022e-03	3.37685157e-06
2.2032645e-05  	-2.41242000e-03	3.37687711e-06
2.2032847e-05  	-2.41243978e-03	3.37690267e-06
2.203305e-05   	-2.41245957e-03	3.37692822e-06
2.2033253e-05  	-2.41247935e-03	3.37695377e-06
2.2033456e-05  	-2.41249913e-03	3.37697933e-06
2.2033658e-05  	-2.41251892e-03	3.37700489e-06
2.2033861e-05  	-2.41253871e-03	3.37703048e-06
2.2034064e-05  	-2.41255852e-03	3.37705608e-06
2.2034266e-05  	-2.41257834e-03	3.37708170e-06
2.2034469e-05  	-2.41259816e-03	3.37710731e-06
2.2034672e-05  	-2.41261798e-03	3.37713293e-06
2.2034874e-05  	-2.41263780e-03	3.37715853e-06
2.2035077e-05  	-2.41265763e-03	3.37718413e-06
2.203528e-05   	-2.41267747e-03	3.37720975e-06
2.2035482e-05  	-2.41269733e-03	3.37723537e-06
2.2035685e-05  	-2.41271721e-03	3.37726101e-06
2.2035888e-05  	-2.41273711e-03	3.37728666e-06
2.203609e-05   	-2.41275702e-03	3.37731230e-06
2.2036293e-05  	-2.41277696e-03	3.37733795e-06
2.2036496e-05  	-2.41279792e-03	3.37736365e-06
2.2036698e-05  	-2.41281823e-03	3.37738938e-06
2.2036901e-05  	-2.41283824e-03	3.37741516e-06
2.2037104e-05  	-2.41285930e-03	3.37744100e-06
2.2037306e-05  	-2.41287969e-03	3.37746688e-06
2.2037509e-05  	-2.41290076e-03	3.37749282e-06
2.2037712e-05  	-2.41292117e-03	3.37751880e-06
2.2037914e-05  	-2.41294127e-03	3.37754481e-06
2.2038117e-05  	-2.41296241e-03	3.37757088e-06
2.203832e-05   	-2.41298288e-03	3.37759698e-06
2.2038522e-05  	-2.41300306e-03	3.37762311e-06
2.2038725e-05  	-2.41302357e-03	3.37764928e-06
2.2038928e-05  	-2.41304421e-03	3.37767552e-06
2.203913e-05   	-2.41306491e-03	3.37770184e-06
2.2039333e-05  	-2.41308565e-03	3.37772825e-06
2.2039535e-05  	-2.41310644e-03	3.37775474e-06
2.2039738e-05  	-2.41312729e-03	3.37778131e-06
2.2039941e-05  	-2.41314820e-03	3.37780797e-06
2.2040143e-05  	-2.41316915e-03	3.37783470e-06
2.2040346e-05  	-2.41319015e-03	3.37786149e-06
2.2040549e-05  	-2.41321119e-03	3.37788835e-06
2.2040751e-05  	-2.41323225e-03	3.37791525e-06
2.2040954e-05  	-2.41325333e-03	3.37794219e-06
2.2041156e-05  	-2.41327441e-03	3.37796913e-06
2.2041359e-05  	-2.41329549e-03	3.37799610e-06
2.2041562e-05  	-2.41331657e-03	3.37802309e-06
2.2041764e-05  	-2.41333764e-03	3.37805012e-06
2.2041967e-05  	-2.41335872e-03	3.37807719e-06
2.2042169e-05  	-2.41337980e-03	3.37810433e-06
2.2042372e-05  	-2.41340090e-03	3.37813153e-06
2.2042575e-05  	-2.41342203e-03	3.37815882e-06
2.2042777e-05  	-2.41344319e-03	3.37818621e-06
2.204298e-05   	-2.41346439e-03	3.37821370e-06
2.2043182e-05  	-2.41348562e-03	3.37824129e-06
2.2043385e-05  	-2.41350690e-03	3.37826902e-06
2.2043588e-05  	-2.41352823e-03	3.37829691e-06
2.204379e-05   	-2.41354964e-03	3.37832497e-06
2.2043993e-05  	-2.41357112e-03	3.37835324e-06
2.2044195e-05  	-2.41359267e-03	3.37838168e-06
2.2044398e-05  	-2.41361427e-03	3.37841031e-06
2.20446e-05    	-2.41363591e-03	3.37843910e-06
2.2044803e-05  	-2.41365758e-03	3.37846802e-06
2.2045005e-05  	-2.41367930e-03	3.37849707e-06
2.2045208e-05  	-2.41370105e-03	3.37852624e-06
2.2045411e-05  	-2.41372286e-03	3.37855555e-06
2.2045613e-05  	-2.41374479e-03	3.37858500e-06
2.2045816e-05  	-2.41376692e-03	3.37861457e-06
2.2046018e-05  	-2.41378907e-03	3.37864425e-06
2.2046221e-05  	-2.41381116e-03	3.37867403e-06
2.2046423e-05  	-2.41383313e-03	3.37870386e-06
2.2046626e-05  	-2.41385515e-03	3.37873377e-06
2.2046828e-05  	-2.41387720e-03	3.37876378e-06
2.2047031e-05  	-2.41389930e-03	3.37879388e-06
2.2047233e-05  	-2.41392145e-03	3.37882408e-06
2.2047436e-05  	-2.41394366e-03	3.37885438e-06
2.2047638e-05  	-2.41396594e-03	3.37888478e-06
2.2047841e-05  	-2.41398827e-03	3.37891529e-06
2.2048043e-05  	-2.41401066e-03	3.37894590e-06
2.2048246e-05  	-2.41403311e-03	3.37897661e-06
2.2048448e-05  	-2.41405561e-03	3.37900742e-06
2.2048651e-05  	-2.41407815e-03	3.37903831e-06
2.2048853e-05  	-2.41410073e-03	3.37906929e-06
2.2049056e-05  	-2.41412334e-03	3.37910036e-06
2.2049258e-05  	-2.41414601e-03	3.37913152e-06
2.2049461e-05  	-2.41416871e-03	3.37916280e-06
2.2049663e-05  	-2.41419146e-03	3.37919420e-06
2.2049866e-05  	-2.41421424e-03	3.37922570e-06
2.2050068e-05  	-2.41423704e-03	3.37925730e-06
2.2050271e-05  	-2.41425987e-03	3.37928897e-06
2.2050473e-05  	-2.41428271e-03	3.37932072e-06
2.2050676e-05  	-2.41430558e-03	3.37935254e-06
2.2050878e-05  	-2.41432849e-03	3.37938444e-06
2.2051081e-05  	-2.41435141e-03	3.37941640e-06
2.2051283e-05  	-2.41437437e-03	3.37944845e-06
2.2051485e-05  	-2.41439738e-03	3.37948058e-06
2.2051688e-05  	-2.41442046e-03	3.37951281e-06
2.205189e-05   	-2.41444360e-03	3.37954516e-06
2.2052093e-05  	-2.41446681e-03	3.37957762e-06
2.2052295e-05  	-2.41449007e-03	3.37961016e-06
2.2052498e-05  	-2.41451337e-03	3.37964276e-06
2.20527e-05    	-2.41453673e-03	3.37967543e-06
2.2052903e-05  	-2.41456014e-03	3.37970817e-06
2.2053105e-05  	-2.41458360e-03	3.37974096e-06
2.2053307e-05  	-2.41460711e-03	3.37977381e-06
2.205351e-05   	-2.41463067e-03	3.37980671e-06
2.2053712e-05  	-2.41465428e-03	3.37983966e-06
2.2053915e-05  	-2.41467793e-03	3.37987264e-06
2.2054117e-05  	-2.41470162e-03	3.37990565e-06
2.205432e-05   	-2.41472533e-03	3.37993868e-06
2.2054522e-05  	-2.41474907e-03	3.37997172e-06
2.2054724e-05  	-2.41477284e-03	3.38000477e-06
2.2054927e-05  	-2.41479664e-03	3.38003785e-06
2.2055129e-05  	-2.41482048e-03	3.38007095e-06
2.2055332e-05  	-2.41484434e-03	3.38010404e-06
2.2055534e-05  	-2.41486824e-03	3.38013715e-06
2.2055737e-05  	-2.41489217e-03	3.38017024e-06
2.2055939e-05  	-2.41491610e-03	3.38020337e-06
2.2056141e-05  	-2.41494006e-03	3.38023649e-06
2.2056344e-05  	-2.41496405e-03	3.38026962e-06
2.2056546e-05  	-2.41498807e-03	3.38030273e-06
2.2056749e-05  	-2.41501210e-03	3.38033582e-06
2.2056951e-05  	-2.41503615e-03	3.38036888e-06
2.2057153e-05  	-2.41506022e-03	3.38040192e-06
2.2057356e-05  	-2.41508430e-03	3.38043493e-06
2.2057558e-05  	-2.41510840e-03	3.38046788e-06
2.205776e-05   	-2.41513249e-03	3.38050078e-06
2.2057963e-05  	-2.41515658e-03	3.38053362e-06
2.2058165e-05  	-2.41518066e-03	3.38056638e-06
2.2058368e-05  	-2.41520474e-03	3.38059907e-06
2.205857e-05   	-2.41522882e-03	3.38063175e-06
2.2058772e-05  	-2.41525292e-03	3.38066440e-06
2.2058975e-05  	-2.41527706e-03	3.38069703e-06
2.2059177e-05  	-2.41530122e-03	3.38072964e-06
2.2059379e-05  	-2.41532548e-03	3.38076224e-06
2.2059582e-05  	-2.41534966e-03	3.38079485e-06
2.2059784e-05  	-2.41537390e-03	3.38082743e-06
2.2059987e-05  	-2.41539815e-03	3.38085998e-06
2.2060189e-05  	-2.41542242e-03	3.38089249e-06
2.2060391e-05  	-2.41544670e-03	3.38092496e-06
2.2060594e-05  	-2.41547100e-03	3.38095740e-06
2.2060796e-05  	-2.41549533e-03	3.38098985e-06
2.2060998e-05  	-2.41551970e-03	3.38102232e-06
2.2061201e-05  	-2.41554411e-03	3.38105481e-06
2.2061403e-05  	-2.41556857e-03	3.38108734e-06
2.2061605e-05  	-2.41559308e-03	3.38111991e-06
2.2061808e-05  	-2.41561776e-03	3.38115252e-06
2.206201e-05   	-2.41564250e-03	3.38118514e-06
2.2062212e-05  	-2.41566724e-03	3.38121773e-06
2.2062415e-05  	-2.41569198e-03	3.38125029e-06
2.2062617e-05  	-2.41571672e-03	3.38128282e-06
2.2062819e-05  	-2.41574146e-03	3.38131530e-06
2.2063022e-05  	-2.41576622e-03	3.38134777e-06
2.2063224e-05  	-2.41579103e-03	3.38138022e-06
2.2063426e-05  	-2.41581600e-03	3.38141268e-06
2.2063629e-05  	-2.41584104e-03	3.38144515e-06
2.2063831e-05  	-2.41586603e-03	3.38147767e-06
2.2064033e-05  	-2.41589106e-03	3.38151025e-06
2.2064236e-05  	-2.41591617e-03	3.38154290e-06
2.2064438e-05  	-2.41594133e-03	3.38157562e-06
2.206464e-05   	-2.41596656e-03	3.38160842e-06
2.2064843e-05  	-2.41599188e-03	3.38164127e-06
2.2065045e-05  	-2.41601744e-03	3.38167415e-06
2.2065247e-05  	-2.41604306e-03	3.38170704e-06
2.206545e-05   	-2.41606867e-03	3.38173991e-06
2.2065652e-05  	-2.41609427e-03	3.38177277e-06
2.2065854e-05  	-2.41611986e-03	3.38180564e-06
2.2066056e-05  	-2.41614547e-03	3.38183853e-06
2.2066259e-05  	-2.41617108e-03	3.38187144e-06
2.2066461e-05  	-2.41619669e-03	3.38190436e-06
2.2066663e-05  	-2.41622232e-03	3.38193729e-06
2.2066866e-05  	-2.41624796e-03	3.38197025e-06
2.2067068e-05  	-2.41627364e-03	3.38200327e-06
2.206727e-05   	-2.41629935e-03	3.38203634e-06
2.2067472e-05  	-2.41632511e-03	3.38206948e-06
2.2067675e-05  	-2.41635091e-03	3.38210267e-06
2.2067877e-05  	-2.41637675e-03	3.38213594e-06
2.2068079e-05  	-2.41640262e-03	3.38216928e-06
2.2068282e-05  	-2.41642855e-03	3.38220270e-06
2.2068484e-05  	-2.41645452e-03	3.38223620e-06
2.2068686e-05  	-2.41648054e-03	3.38226979e-06
2.2068888e-05  	-2.41650660e-03	3.38230345e-06
2.2069091e-05  	-2.41653270e-03	3.38233719e-06
2.2069293e-05  	-2.41655885e-03	3.38237100e-06
2.2069495e-05  	-2.41658505e-03	3.38240489e-06
2.2069697e-05  	-2.41661130e-03	3.38243885e-06
2.20699e-05    	-2.41663761e-03	3.38247289e-06
2.2070102e-05  	-2.41666409e-03	3.38250704e-06
2.2070304e-05  	-2.41669086e-03	3.38254129e-06
2.2070506e-05  	-2.41671746e-03	3.38257563e-06
2.2070709e-05  	-2.41674411e-03	3.38261004e-06
2.2070911e-05  	-2.41677080e-03	3.38264452e-06
2.2071113e-05  	-2.41679752e-03	3.38267906e-06
2.2071315e-05  	-2.41682426e-03	3.38271363e-06
2.2071518e-05  	-2.41685101e-03	3.38274824e-06
2.207172e-05   	-2.41687778e-03	3.38278290e-06
2.2071922e-05  	-2.41690457e-03	3.38281763e-06
2.2072124e-05  	-2.41693139e-03	3.38285242e-06
2.2072327e-05  	-2.41695824e-03	3.38288726e-06
2.2072529e-05  	-2.41698512e-03	3.38292219e-06
2.2072731e-05  	-2.41701203e-03	3.38295718e-06
2.2072933e-05  	-2.41703897e-03	3.38299224e-06
2.2073136e-05  	-2.41706594e-03	3.38302737e-06
2.2073338e-05  	-2.41709295e-03	3.38306260e-06
2.207354e-05   	-2.41712000e-03	3.38309792e-06
2.2073742e-05  	-2.41714709e-03	3.38313338e-06
2.2073945e-05  	-2.41717422e-03	3.38316894e-06
2.2074147e-05  	-2.41720139e-03	3.38320462e-06
2.2074349e-05  	-2.41722861e-03	3.38324041e-06
2.2074551e-05  	-2.41725590e-03	3.38327633e-06
2.2074753e-05  	-2.41728326e-03	3.38331240e-06
2.2074956e-05  	-2.41731068e-03	3.38334862e-06
2.2075158e-05  	-2.41733816e-03	3.38338499e-06
2.207536e-05   	-2.41736569e-03	3.38342149e-06
2.2075562e-05  	-2.41739326e-03	3.38345812e-06
2.2075765e-05  	-2.41742086e-03	3.38349487e-06
2.2075967e-05  	-2.41744848e-03	3.38353173e-06
2.2076169e-05  	-2.41747610e-03	3.38356868e-06
2.2076371e-05  	-2.41750372e-03	3.38360574e-06
2.2076574e-05  	-2.41753135e-03	3.38364289e-06
2.2076776e-05  	-2.41755898e-03	3.38368013e-06
2.2076978e-05  	-2.41758663e-03	3.38371750e-06
2.207718e-05   	-2.41761430e-03	3.38375497e-06
2.2077382e-05  	-2.41764199e-03	3.38379262e-06
2.2077585e-05  	-2.41766973e-03	3.38383039e-06
2.2077787e-05  	-2.41769752e-03	3.38386838e-06
2.2077989e-05  	-2.41772536e-03	3.38390646e-06
2.2078191e-05  	-2.41775326e-03	3.38394487e-06
2.2078393e-05  	-2.41778122e-03	3.38398329e-06
2.2078596e-05  	-2.41780926e-03	3.38402205e-06
2.2078798e-05  	-2.41783738e-03	3.38406089e-06
2.2079e-05     	-2.41786557e-03	3.38409996e-06
2.2079202e-05  	-2.41789384e-03	3.38413921e-06
2.2079404e-05  	-2.41792218e-03	3.38417862e-06
2.2079607e-05  	-2.41795060e-03	3.38421820e-06
2.2079809e-05  	-2.41797913e-03	3.38425794e-06
2.2080011e-05  	-2.41800780e-03	3.38429782e-06
2.2080213e-05  	-2.41803655e-03	3.38433782e-06
2.2080416e-05  	-2.41806536e-03	3.38437795e-06
2.2080618e-05  	-2.41809421e-03	3.38441819e-06
2.208082e-05   	-2.41812309e-03	3.38445846e-06
2.2081022e-05  	-2.41815239e-03	3.38449889e-06
2.2081224e-05  	-2.41818189e-03	3.38453927e-06
2.2081427e-05  	-2.41821189e-03	3.38457989e-06
2.2081629e-05  	-2.41824213e-03	3.38462036e-06
2.2081831e-05  	-2.41827195e-03	3.38466114e-06
2.2082033e-05  	-2.41830199e-03	3.38470163e-06
2.2082235e-05  	-2.41833227e-03	3.38474260e-06
2.2082438e-05  	-2.41836210e-03	3.38478318e-06
2.208264e-05   	-2.41839222e-03	3.38482433e-06
2.2082842e-05  	-2.41842262e-03	3.38486514e-06
2.2083044e-05  	-2.41845307e-03	3.38490658e-06
2.2083246e-05  	-2.41848310e-03	3.38494754e-06
2.2083449e-05  	-2.41851346e-03	3.38498921e-06
2.2083651e-05  	-2.41854411e-03	3.38503043e-06
2.2083853e-05  	-2.41857481e-03	3.38507243e-06
2.2084055e-05  	-2.41860555e-03	3.38511393e-06
2.2084258e-05  	-2.41863636e-03	3.38515623e-06
2.208446e-05   	-2.41866668e-03	3.38519791e-06
2.2084662e-05  	-2.41869678e-03	3.38524033e-06
2.2084864e-05  	-2.41872740e-03	3.38528212e-06
2.2085066e-05  	-2.41875835e-03	3.38532478e-06
2.2085269e-05  	-2.41878933e-03	3.38536679e-06
2.2085471e-05  	-2.41882038e-03	3.38540965e-06
2.2085673e-05  	-2.41885146e-03	3.38545183e-06
2.2085875e-05  	-2.41888260e-03	3.38549483e-06
2.2086077e-05  	-2.41891374e-03	3.38553715e-06
2.208628e-05   	-2.41894493e-03	3.38558020e-06
2.2086482e-05  	-2.41897612e-03	3.38562263e-06
2.2086684e-05  	-2.41900737e-03	3.38566573e-06
2.2086886e-05  	-2.41903865e-03	3.38570831e-06
2.2087088e-05  	-2.41907000e-03	3.38575152e-06
2.2087291e-05  	-2.41910140e-03	3.38579435e-06
2.2087493e-05  	-2.41913287e-03	3.38583771e-06
2.2087695e-05  	-2.41916441e-03	3.38588074e-06
2.2087897e-05  	-2.41919603e-03	3.38592423e-06
2.20881e-05    	-2.41922777e-03	3.38596750e-06
2.2088302e-05  	-2.41925962e-03	3.38601116e-06
2.2088504e-05  	-2.41929156e-03	3.38605470e-06
2.2088706e-05  	-2.41932362e-03	3.38609856e-06
2.2088908e-05  	-2.41935576e-03	3.38614235e-06
2.2089111e-05  	-2.41938800e-03	3.38618638e-06
2.2089313e-05  	-2.41942031e-03	3.38623039e-06
2.2089515e-05  	-2.41945270e-03	3.38627458e-06
2.2089717e-05  	-2.41948517e-03	3.38631878e-06
2.2089919e-05  	-2.41951771e-03	3.38636312e-06
2.2090122e-05  	-2.41955032e-03	3.38640749e-06
2.2090324e-05  	-2.41958300e-03	3.38645198e-06
2.2090526e-05  	-2.41961576e-03	3.38649653e-06
2.2090728e-05  	-2.41964857e-03	3.38654117e-06
2.209093e-05   	-2.41968144e-03	3.38658586e-06
2.2091133e-05  	-2.41971436e-03	3.38663064e-06
2.2091335e-05  	-2.41974735e-03	3.38667550e-06
2.2091537e-05  	-2.41978041e-03	3.38672045e-06
2.2091739e-05  	-2.41981354e-03	3.38676550e-06
2.2091942e-05  	-2.41984674e-03	3.38681065e-06
2.2092144e-05  	-2.41988003e-03	3.38685589e-06
2.2092346e-05  	-2.41991338e-03	3.38690124e-06
2.2092548e-05  	-2.41994679e-03	3.38694668e-06
2.209275e-05   	-2.41998027e-03	3.38699221e-06
2.2092953e-05  	-2.42001383e-03	3.38703783e-06
2.2093155e-05  	-2.42004744e-03	3.38708352e-06
2.2093357e-05  	-2.42008110e-03	3.38712928e-06
2.2093559e-05  	-2.42011480e-03	3.38717509e-06
2.2093761e-05  	-2.42014857e-03	3.38722095e-06
2.2093964e-05  	-2.42018238e-03	3.38726686e-06
2.2094166e-05  	-2.42021624e-03	3.38731282e-06
2.2094368e-05  	-2.42025017e-03	3.38735882e-06
2.209457e-05   	-2.42028416e-03	3.38740485e-06
2.2094772e-05  	-2.42031821e-03	3.38745094e-06
2.2094975e-05  	-2.42035232e-03	3.38749707e-06
2.2095177e-05  	-2.42038649e-03	3.38754326e-06
2.2095379e-05  	-2.42042071e-03	3.38758950e-06
2.2095581e-05  	-2.42045499e-03	3.38763579e-06
2.2095784e-05  	-2.42048932e-03	3.38768214e-06
2.2095986e-05  	-2.42052371e-03	3.38772856e-06
2.2096188e-05  	-2.42055817e-03	3.38777505e-06
2.209639e-05   	-2.42059268e-03	3.38782162e-06
2.2096592e-05  	-2.42062727e-03	3.38786828e-06
2.2096795e-05  	-2.42066193e-03	3.38791502e-06
2.2096997e-05  	-2.42069665e-03	3.38796183e-06
2.2097199e-05  	-2.42073141e-03	3.38800869e-06
2.2097401e-05  	-2.42076622e-03	3.38805560e-06
2.2097603e-05  	-2.42080109e-03	3.38810257e-06
2.2097806e-05  	-2.42083601e-03	3.38814960e-06
2.2098008e-05  	-2.42087098e-03	3.38819669e-06
2.209821e-05   	-2.42090598e-03	3.38824383e-06
2.2098412e-05  	-2.42094104e-03	3.38829105e-06
2.2098614e-05  	-2.42097616e-03	3.38833832e-06
2.2098817e-05  	-2.42101133e-03	3.38838570e-06
2.2099019e-05  	-2.42104657e-03	3.38843319e-06
2.2099221e-05  	-2.42108187e-03	3.38848078e-06
2.2099423e-05  	-2.42111724e-03	3.38852849e-06
2.2099626e-05  	-2.42115268e-03	3.38857631e-06
2.2099828e-05  	-2.42118818e-03	3.38862424e-06
2.210003e-05   	-2.42122374e-03	3.38867228e-06
2.2100232e-05  	-2.42125936e-03	3.38872042e-06
2.2100434e-05  	-2.42129504e-03	3.38876866e-06
2.2100637e-05  	-2.42133079e-03	3.38881701e-06
2.2100839e-05  	-2.42136659e-03	3.38886544e-06
2.2101041e-05  	-2.42140245e-03	3.38891397e-06
2.2101243e-05  	-2.42143838e-03	3.38896259e-06
2.2101445e-05  	-2.42147438e-03	3.38901127e-06
2.2101648e-05  	-2.42151052e-03	3.38906003e-06
2.210185e-05   	-2.42154668e-03	3.38910892e-06
2.2102052e-05  	-2.42158293e-03	3.38915788e-06
2.2102254e-05  	-2.42161917e-03	3.38920693e-06
2.2102456e-05  	-2.42165549e-03	3.38925606e-06
2.2102659e-05  	-2.42169186e-03	3.38930529e-06
2.2102861e-05  	-2.42172837e-03	3.38935465e-06
2.2103063e-05  	-2.42176480e-03	3.38940409e-06
2.2103265e-05  	-2.42180130e-03	3.38945361e-06
2.2103468e-05  	-2.42183793e-03	3.38950322e-06
2.210367e-05   	-2.42187463e-03	3.38955293e-06
2.2103872e-05  	-2.42191142e-03	3.38960273e-06
2.2104074e-05  	-2.42194828e-03	3.38965263e-06
2.2104276e-05  	-2.42198519e-03	3.38970264e-06
2.2104479e-05  	-2.42202227e-03	3.38975278e-06
2.2104681e-05  	-2.42205937e-03	3.38980301e-06
2.2104883e-05  	-2.42209646e-03	3.38985334e-06
2.2105085e-05  	-2.42213362e-03	3.38990377e-06
2.2105287e-05  	-2.42217082e-03	3.38995429e-06
2.210549e-05   	-2.42220807e-03	3.39000490e-06
2.2105692e-05  	-2.42224537e-03	3.39005559e-06
2.2105894e-05  	-2.42228271e-03	3.39010636e-06
2.2106096e-05  	-2.42232010e-03	3.39015723e-06
2.2106298e-05  	-2.42235754e-03	3.39020817e-06
2.2106501e-05  	-2.42239506e-03	3.39025924e-06
2.2106703e-05  	-2.42243265e-03	3.39031040e-06
2.2106905e-05  	-2.42247032e-03	3.39036170e-06
2.2107107e-05  	-2.42250808e-03	3.39041312e-06
2.210731e-05   	-2.42254596e-03	3.39046472e-06
2.2107512e-05  	-2.42258394e-03	3.39051649e-06
2.2107714e-05  	-2.42262204e-03	3.39056846e-06
2.2107916e-05  	-2.42266033e-03	3.39062057e-06
2.2108118e-05  	-2.42269893e-03	3.39067288e-06
2.2108321e-05  	-2.42273756e-03	3.39072533e-06
2.2108523e-05  	-2.42277613e-03	3.39077796e-06
2.2108725e-05  	-2.42281481e-03	3.39083071e-06
2.2108927e-05  	-2.42285361e-03	3.39088366e-06
2.210913e-05   	-2.42289253e-03	3.39093670e-06
2.2109332e-05  	-2.42293157e-03	3.39098996e-06
2.2109534e-05  	-2.42297072e-03	3.39104330e-06
2.2109736e-05  	-2.42300997e-03	3.39109686e-06
2.2109939e-05  	-2.42304936e-03	3.39115047e-06
2.2110141e-05  	-2.42308888e-03	3.39120434e-06
2.2110343e-05  	-2.42312855e-03	3.39125823e-06
2.2110545e-05  	-2.42316906e-03	3.39131242e-06
2.2110747e-05  	-2.42320905e-03	3.39136658e-06
2.211095e-05   	-2.42324918e-03	3.39142110e-06
2.2111152e-05  	-2.42328942e-03	3.39147552e-06
2.2111354e-05  	-2.42332909e-03	3.39153036e-06
2.2111556e-05  	-2.42336948e-03	3.39158498e-06
2.2111759e-05  	-2.42341001e-03	3.39164013e-06
2.2111961e-05  	-2.42345065e-03	3.39169494e-06
2.2112163e-05  	-2.42349143e-03	3.39175044e-06
2.2112365e-05  	-2.42353231e-03	3.39180547e-06
2.2112568e-05  	-2.42357334e-03	3.39186127e-06
2.211277e-05   	-2.42361447e-03	3.39191655e-06
2.2112972e-05  	-2.42365575e-03	3.39197265e-06
2.2113175e-05  	-2.42369714e-03	3.39202825e-06
2.2113377e-05  	-2.42373867e-03	3.39208467e-06
2.2113579e-05  	-2.42378029e-03	3.39214050e-06
2.2113781e-05  	-2.42382201e-03	3.39219720e-06
2.2113984e-05  	-2.42386379e-03	3.39225315e-06
2.2114186e-05  	-2.42390565e-03	3.39231008e-06
2.2114388e-05  	-2.42394757e-03	3.39236616e-06
2.211459e-05   	-2.42398956e-03	3.39242319e-06
2.2114793e-05  	-2.42403160e-03	3.39247946e-06
2.2114995e-05  	-2.42407442e-03	3.39253665e-06
2.2115197e-05  	-2.42411593e-03	3.39259315e-06
2.21154e-05    	-2.42415815e-03	3.39265049e-06
2.2115602e-05  	-2.42420045e-03	3.39270727e-06
2.2115804e-05  	-2.42424284e-03	3.39276479e-06
2.2116006e-05  	-2.42428530e-03	3.39282183e-06
2.2116209e-05  	-2.42432786e-03	3.39287959e-06
2.2116411e-05  	-2.42437050e-03	3.39293695e-06
2.2116613e-05  	-2.42441326e-03	3.39299504e-06
2.2116816e-05  	-2.42445613e-03	3.39305274e-06
2.2117018e-05  	-2.42449919e-03	3.39311116e-06
2.211722e-05   	-2.42454237e-03	3.39316920e-06
2.2117423e-05  	-2.42458566e-03	3.39322793e-06
2.2117625e-05  	-2.42462903e-03	3.39328627e-06
2.2117827e-05  	-2.42467252e-03	3.39334526e-06
2.2118029e-05  	-2.42471608e-03	3.39340386e-06
2.2118232e-05  	-2.42475974e-03	3.39346308e-06
2.2118434e-05  	-2.42480348e-03	3.39352190e-06
2.2118636e-05  	-2.42484733e-03	3.39358135e-06
2.2118839e-05  	-2.42489128e-03	3.39364043e-06
2.2119041e-05  	-2.42493533e-03	3.39370012e-06
2.2119243e-05  	-2.42497948e-03	3.39375947e-06
2.2119446e-05  	-2.42502376e-03	3.39381943e-06
2.2119648e-05  	-2.42506815e-03	3.39387907e-06
2.211985e-05   	-2.42511266e-03	3.39393931e-06
2.2120053e-05  	-2.42515728e-03	3.39399923e-06
2.2120255e-05  	-2.42520198e-03	3.39405974e-06
2.2120457e-05  	-2.42524678e-03	3.39411994e-06
2.212066e-05   	-2.42529169e-03	3.39418073e-06
2.2120862e-05  	-2.42533671e-03	3.39424125e-06
2.2121064e-05  	-2.42538186e-03	3.39430233e-06
2.2121267e-05  	-2.42542712e-03	3.39436316e-06
2.2121469e-05  	-2.42547250e-03	3.39442456e-06
2.2121671e-05  	-2.42551800e-03	3.39448575e-06
2.2121874e-05  	-2.42556362e-03	3.39454748e-06
2.2122076e-05  	-2.42560933e-03	3.39460896e-06
2.2122278e-05  	-2.42565513e-03	3.39467095e-06
2.2122481e-05  	-2.42570101e-03	3.39473267e-06
2.2122683e-05  	-2.42574697e-03	3.39479488e-06
2.2122885e-05  	-2.42579368e-03	3.39485685e-06
2.2123088e-05  	-2.42583908e-03	3.39491926e-06
2.212329e-05   	-2.42588515e-03	3.39498142e-06
2.2123492e-05  	-2.42593130e-03	3.39504402e-06
2.2123695e-05  	-2.42597750e-03	3.39510640e-06
2.2123897e-05  	-2.42602383e-03	3.39516921e-06
2.2124099e-05  	-2.42607027e-03	3.39523183e-06
2.2124302e-05  	-2.42611688e-03	3.39529491e-06
2.2124504e-05  	-2.42616359e-03	3.39535786e-06
2.2124706e-05  	-2.42621040e-03	3.39542125e-06
2.2124909e-05  	-2.42625729e-03	3.39548453e-06
2.2125111e-05  	-2.42630429e-03	3.39554827e-06
2.2125313e-05  	-2.42635211e-03	3.39561190e-06
2.2125516e-05  	-2.42639866e-03	3.39567591e-06
2.2125718e-05  	-2.42644593e-03	3.39573985e-06
2.2125921e-05  	-2.42649329e-03	3.39580420e-06
2.2126123e-05  	-2.42654074e-03	3.39586846e-06
2.2126325e-05  	-2.42658830e-03	3.39593313e-06
2.2126528e-05  	-2.42663594e-03	3.39599773e-06
2.212673e-05   	-2.42668370e-03	3.39606272e-06
2.2126932e-05  	-2.42673155e-03	3.39612767e-06
2.2127135e-05  	-2.42677950e-03	3.39619299e-06
2.2127337e-05  	-2.42682753e-03	3.39625827e-06
2.2127539e-05  	-2.42687564e-03	3.39632391e-06
2.2127742e-05  	-2.42692385e-03	3.39638950e-06
2.2127944e-05  	-2.42697208e-03	3.39645542e-06
2.2128147e-05  	-2.42702043e-03	3.39652128e-06
2.2128349e-05  	-2.42706881e-03	3.39658749e-06
2.2128551e-05  	-2.42711733e-03	3.39665364e-06