# Region type : faceZone nozzleOutletZone
# Faces  :     3013
# Area   :     6.30029605e-09
# Time         	sum(rhoPhi)	sum(phi)
1.8000257e-05  	-1.84772135e-03	2.58723643e-06
1.8000514e-05  	-1.84761125e-03	2.58707682e-06
1.8000771e-05  	-1.84749962e-03	2.58691731e-06
1.8001028e-05  	-1.84738810e-03	2.58675791e-06
1.8001285e-05  	-1.84727670e-03	2.58659867e-06
1.8001542e-05  	-1.84716542e-03	2.58643959e-06
1.8001799e-05  	-1.84705429e-03	2.58628072e-06
1.8002056e-05  	-1.84694330e-03	2.58612205e-06
1.8002313e-05  	-1.84683244e-03	2.58596359e-06
1.800257e-05   	-1.84672172e-03	2.58580533e-06
1.8002827e-05  	-1.84661111e-03	2.58564727e-06
1.8003084e-05  	-1.84650064e-03	2.58548942e-06
1.8003341e-05  	-1.84639031e-03	2.58533180e-06
1.8003598e-05  	-1.84628013e-03	2.58517442e-06
1.8003856e-05  	-1.84617009e-03	2.58501728e-06
1.8004113e-05  	-1.84606021e-03	2.58486040e-06
1.800437e-05   	-1.84595048e-03	2.58470380e-06
1.8004627e-05  	-1.84584092e-03	2.58454746e-06
1.8004884e-05  	-1.84573152e-03	2.58439141e-06
1.8005141e-05  	-1.84562229e-03	2.58423564e-06
1.8005398e-05  	-1.84551325e-03	2.58408018e-06
1.8005655e-05  	-1.84540439e-03	2.58392505e-06
1.8005912e-05  	-1.84529573e-03	2.58377025e-06
1.800617e-05   	-1.84518726e-03	2.58361578e-06
1.8006427e-05  	-1.84507898e-03	2.58346165e-06
1.8006684e-05  	-1.84497091e-03	2.58330788e-06
1.8006941e-05  	-1.84486308e-03	2.58315449e-06
1.8007198e-05  	-1.84475549e-03	2.58300153e-06
1.8007455e-05  	-1.84464816e-03	2.58284898e-06
1.8007713e-05  	-1.84454109e-03	2.58269687e-06
1.800797e-05   	-1.84443426e-03	2.58254518e-06
1.8008227e-05  	-1.84432768e-03	2.58239392e-06
1.8008484e-05  	-1.84422138e-03	2.58224309e-06
1.8008741e-05  	-1.84411533e-03	2.58209271e-06
1.8008999e-05  	-1.84400956e-03	2.58194278e-06
1.8009256e-05  	-1.84390404e-03	2.58179329e-06
1.8009513e-05  	-1.84379879e-03	2.58164426e-06
1.800977e-05   	-1.84369379e-03	2.58149567e-06
1.8010028e-05  	-1.84358905e-03	2.58134753e-06
1.8010285e-05  	-1.84348457e-03	2.58119984e-06
1.8010542e-05  	-1.84338037e-03	2.58105264e-06
1.8010799e-05  	-1.84327642e-03	2.58090589e-06
1.8011057e-05  	-1.84317271e-03	2.58075955e-06
1.8011314e-05  	-1.84306924e-03	2.58061365e-06
1.8011571e-05  	-1.84296602e-03	2.58046820e-06
1.8011828e-05  	-1.84286305e-03	2.58032321e-06
1.8012086e-05  	-1.84276034e-03	2.58017870e-06
1.8012343e-05  	-1.84265790e-03	2.58003466e-06
1.80126e-05    	-1.84255575e-03	2.57989113e-06
1.8012857e-05  	-1.84245388e-03	2.57974811e-06
1.8013115e-05  	-1.84235231e-03	2.57960563e-06
1.8013372e-05  	-1.84225106e-03	2.57946371e-06
1.8013629e-05  	-1.84215013e-03	2.57932241e-06
1.8013887e-05  	-1.84204951e-03	2.57918168e-06
1.8014144e-05  	-1.84194921e-03	2.57904151e-06
1.8014401e-05  	-1.84184923e-03	2.57890193e-06
1.8014659e-05  	-1.84174958e-03	2.57876294e-06
1.8014916e-05  	-1.84165024e-03	2.57862453e-06
1.8015173e-05  	-1.84155121e-03	2.57848668e-06
1.8015431e-05  	-1.84145248e-03	2.57834939e-06
1.8015688e-05  	-1.84135407e-03	2.57821266e-06
1.8015945e-05  	-1.84125595e-03	2.57807648e-06
1.8016203e-05  	-1.84115812e-03	2.57794084e-06
1.801646e-05   	-1.84106057e-03	2.57780574e-06
1.8016717e-05  	-1.84096331e-03	2.57767117e-06
1.8016975e-05  	-1.84086635e-03	2.57753713e-06
1.8017232e-05  	-1.84076968e-03	2.57740364e-06
1.8017489e-05  	-1.84067330e-03	2.57727071e-06
1.8017747e-05  	-1.84057722e-03	2.57713833e-06
1.8018004e-05  	-1.84048142e-03	2.57700650e-06
1.8018261e-05  	-1.84038590e-03	2.57687519e-06
1.8018519e-05  	-1.84029066e-03	2.57674441e-06
1.8018776e-05  	-1.84019568e-03	2.57661414e-06
1.8019034e-05  	-1.84010094e-03	2.57648435e-06
1.8019291e-05  	-1.84000645e-03	2.57635505e-06
1.8019548e-05  	-1.83991223e-03	2.57622624e-06
1.8019806e-05  	-1.83981827e-03	2.57609795e-06
1.8020063e-05  	-1.83972459e-03	2.57597016e-06
1.8020321e-05  	-1.83963117e-03	2.57584287e-06
1.8020578e-05  	-1.83953801e-03	2.57571607e-06
1.8020835e-05  	-1.83944511e-03	2.57558974e-06
1.8021093e-05  	-1.83935246e-03	2.57546388e-06
1.802135e-05   	-1.83926003e-03	2.57533847e-06
1.8021608e-05  	-1.83916785e-03	2.57521352e-06
1.8021865e-05  	-1.83907591e-03	2.57508901e-06
1.8022123e-05  	-1.83898421e-03	2.57496495e-06
1.802238e-05   	-1.83889276e-03	2.57484135e-06
1.8022637e-05  	-1.83880157e-03	2.57471821e-06
1.8022895e-05  	-1.83871061e-03	2.57459548e-06
1.8023152e-05  	-1.83861989e-03	2.57447318e-06
1.802341e-05   	-1.83852943e-03	2.57435131e-06
1.8023667e-05  	-1.83843920e-03	2.57422987e-06
1.8023925e-05  	-1.83834923e-03	2.57410885e-06
1.8024182e-05  	-1.83825949e-03	2.57398824e-06
1.802444e-05   	-1.83816997e-03	2.57386801e-06
1.8024697e-05  	-1.83808065e-03	2.57374814e-06
1.8024955e-05  	-1.83799151e-03	2.57362860e-06
1.8025212e-05  	-1.83790256e-03	2.57350938e-06
1.802547e-05   	-1.83781379e-03	2.57339048e-06
1.8025727e-05  	-1.83772517e-03	2.57327189e-06
1.8025985e-05  	-1.83763672e-03	2.57315359e-06
1.8026242e-05  	-1.83754843e-03	2.57303557e-06
1.80265e-05    	-1.83746029e-03	2.57291783e-06
1.8026757e-05  	-1.83737231e-03	2.57280037e-06
1.8027015e-05  	-1.83728447e-03	2.57268317e-06
1.8027272e-05  	-1.83719680e-03	2.57256622e-06
1.802753e-05   	-1.83710928e-03	2.57244953e-06
1.8027787e-05  	-1.83702193e-03	2.57233313e-06
1.8028045e-05  	-1.83693474e-03	2.57221698e-06
1.8028302e-05  	-1.83684773e-03	2.57210109e-06
1.802856e-05   	-1.83676088e-03	2.57198545e-06
1.8028817e-05  	-1.83667418e-03	2.57187003e-06
1.8029075e-05  	-1.83658763e-03	2.57175484e-06
1.8029332e-05  	-1.83650123e-03	2.57163986e-06
1.802959e-05   	-1.83641497e-03	2.57152507e-06
1.8029848e-05  	-1.83632884e-03	2.57141046e-06
1.8030105e-05  	-1.83624284e-03	2.57129603e-06
1.8030363e-05  	-1.83615699e-03	2.57118178e-06
1.803062e-05   	-1.83607129e-03	2.57106771e-06
1.8030878e-05  	-1.83598572e-03	2.57095382e-06
1.8031135e-05  	-1.83590029e-03	2.57084009e-06
1.8031393e-05  	-1.83581501e-03	2.57072653e-06
1.8031651e-05  	-1.83572988e-03	2.57061314e-06
1.8031908e-05  	-1.83564490e-03	2.57049991e-06
1.8032166e-05  	-1.83556007e-03	2.57038685e-06
1.8032423e-05  	-1.83547538e-03	2.57027395e-06
1.8032681e-05  	-1.83539085e-03	2.57016120e-06
1.8032939e-05  	-1.83530647e-03	2.57004861e-06
1.8033196e-05  	-1.83522225e-03	2.56993619e-06
1.8033454e-05  	-1.83513819e-03	2.56982392e-06
1.8033712e-05  	-1.83505427e-03	2.56971180e-06
1.8033969e-05  	-1.83497049e-03	2.56959981e-06
1.8034227e-05  	-1.83488684e-03	2.56948794e-06
1.8034485e-05  	-1.83480331e-03	2.56937617e-06
1.8034742e-05  	-1.83471988e-03	2.56926450e-06
1.8035e-05     	-1.83463656e-03	2.56915291e-06
1.8035258e-05  	-1.83455334e-03	2.56904139e-06
1.8035515e-05  	-1.83447019e-03	2.56892993e-06
1.8035773e-05  	-1.83438712e-03	2.56881851e-06
1.8036031e-05  	-1.83430412e-03	2.56870714e-06
1.8036288e-05  	-1.83422121e-03	2.56859582e-06
1.8036546e-05  	-1.83413839e-03	2.56848456e-06
1.8036804e-05  	-1.83405565e-03	2.56837334e-06
1.8037062e-05  	-1.83397299e-03	2.56826217e-06
1.8037319e-05  	-1.83389041e-03	2.56815105e-06
1.8037577e-05  	-1.83380793e-03	2.56803998e-06
1.8037835e-05  	-1.83372555e-03	2.56792898e-06
1.8038093e-05  	-1.83364326e-03	2.56781802e-06
1.803835e-05   	-1.83356107e-03	2.56770713e-06
1.8038608e-05  	-1.83347898e-03	2.56759630e-06
1.8038866e-05  	-1.83339699e-03	2.56748552e-06
1.8039123e-05  	-1.83331510e-03	2.56737480e-06
1.8039381e-05  	-1.83323330e-03	2.56726413e-06
1.8039639e-05  	-1.83315161e-03	2.56715353e-06
1.8039897e-05  	-1.83307003e-03	2.56704299e-06
1.8040155e-05  	-1.83298855e-03	2.56693251e-06
1.8040412e-05  	-1.83290717e-03	2.56682208e-06
1.804067e-05   	-1.83282588e-03	2.56671171e-06
1.8040928e-05  	-1.83274468e-03	2.56660139e-06
1.8041186e-05  	-1.83266359e-03	2.56649113e-06
1.8041444e-05  	-1.83258258e-03	2.56638091e-06
1.8041701e-05  	-1.83250163e-03	2.56627072e-06
1.8041959e-05  	-1.83242076e-03	2.56616055e-06
1.8042217e-05  	-1.83233997e-03	2.56605042e-06
1.8042475e-05  	-1.83225925e-03	2.56594033e-06
1.8042733e-05  	-1.83217862e-03	2.56583030e-06
1.804299e-05   	-1.83209807e-03	2.56572032e-06
1.8043248e-05  	-1.83201759e-03	2.56561039e-06
1.8043506e-05  	-1.83193718e-03	2.56550048e-06
1.8043764e-05  	-1.83185682e-03	2.56539061e-06
1.8044022e-05  	-1.83177652e-03	2.56528076e-06
1.804428e-05   	-1.83169628e-03	2.56517096e-06
1.8044538e-05  	-1.83161609e-03	2.56506119e-06
1.8044795e-05  	-1.83153595e-03	2.56495146e-06
1.8045053e-05  	-1.83145586e-03	2.56484175e-06
1.8045311e-05  	-1.83137580e-03	2.56473207e-06
1.8045569e-05  	-1.83129578e-03	2.56462241e-06
1.8045827e-05  	-1.83121579e-03	2.56451278e-06
1.8046085e-05  	-1.83113585e-03	2.56440316e-06
1.8046343e-05  	-1.83105591e-03	2.56429357e-06
1.8046601e-05  	-1.83097600e-03	2.56418400e-06
1.8046859e-05  	-1.83089613e-03	2.56407446e-06
1.8047116e-05  	-1.83081629e-03	2.56396496e-06
1.8047374e-05  	-1.83073649e-03	2.56385549e-06
1.8047632e-05  	-1.83065672e-03	2.56374606e-06
1.804789e-05   	-1.83057698e-03	2.56363665e-06
1.8048148e-05  	-1.83049725e-03	2.56352725e-06
1.8048406e-05  	-1.83041752e-03	2.56341785e-06
1.8048664e-05  	-1.83033779e-03	2.56330846e-06
1.8048922e-05  	-1.83025808e-03	2.56319906e-06
1.804918e-05   	-1.83017836e-03	2.56308967e-06
1.8049438e-05  	-1.83009865e-03	2.56298027e-06
1.8049696e-05  	-1.83001893e-03	2.56287086e-06
1.8049954e-05  	-1.82993920e-03	2.56276146e-06
1.8050212e-05  	-1.82985947e-03	2.56265208e-06
1.805047e-05   	-1.82977970e-03	2.56254267e-06
1.8050728e-05  	-1.82969993e-03	2.56243324e-06
1.8050986e-05  	-1.82962013e-03	2.56232378e-06
1.8051244e-05  	-1.82954032e-03	2.56221442e-06
1.8051502e-05  	-1.82946049e-03	2.56210500e-06
1.8051759e-05  	-1.82938063e-03	2.56199555e-06
1.8052017e-05  	-1.82930074e-03	2.56188607e-06
1.8052275e-05  	-1.82922083e-03	2.56177656e-06
1.8052533e-05  	-1.82914088e-03	2.56166700e-06
1.8052791e-05  	-1.82906087e-03	2.56155738e-06
1.8053049e-05  	-1.82898081e-03	2.56144770e-06
1.8053307e-05  	-1.82890069e-03	2.56133794e-06
1.8053565e-05  	-1.82882051e-03	2.56122812e-06
1.8053823e-05  	-1.82874025e-03	2.56111821e-06
1.8054081e-05  	-1.82865992e-03	2.56100823e-06
1.8054339e-05  	-1.82857953e-03	2.56089818e-06
1.8054598e-05  	-1.82849908e-03	2.56078805e-06
1.8054856e-05  	-1.82841856e-03	2.56067786e-06
1.8055114e-05  	-1.82833798e-03	2.56056762e-06
1.8055372e-05  	-1.82825734e-03	2.56045732e-06
1.805563e-05   	-1.82817667e-03	2.56034698e-06
1.8055888e-05  	-1.82809595e-03	2.56023659e-06
1.8056146e-05  	-1.82801519e-03	2.56012617e-06
1.8056404e-05  	-1.82793439e-03	2.56001572e-06
1.8056662e-05  	-1.82785355e-03	2.55990522e-06
1.805692e-05   	-1.82777267e-03	2.55979466e-06
1.8057178e-05  	-1.82769174e-03	2.55968405e-06
1.8057436e-05  	-1.82761076e-03	2.55957338e-06
1.8057694e-05  	-1.82752973e-03	2.55946265e-06
1.8057952e-05  	-1.82744865e-03	2.55935186e-06
1.805821e-05   	-1.82736751e-03	2.55924099e-06
1.8058468e-05  	-1.82728632e-03	2.55913006e-06
1.8058726e-05  	-1.82720509e-03	2.55901907e-06
1.8058984e-05  	-1.82712381e-03	2.55890801e-06
1.8059242e-05  	-1.82704249e-03	2.55879690e-06
1.8059501e-05  	-1.82696112e-03	2.55868572e-06
1.8059759e-05  	-1.82687972e-03	2.55857448e-06
1.8060017e-05  	-1.82679826e-03	2.55846316e-06
1.8060275e-05  	-1.82671675e-03	2.55835178e-06
1.8060533e-05  	-1.82663520e-03	2.55824032e-06
1.8060791e-05  	-1.82655361e-03	2.55812880e-06
1.8061049e-05  	-1.82647199e-03	2.55801723e-06
1.8061307e-05  	-1.82639034e-03	2.55790560e-06
1.8061565e-05  	-1.82630867e-03	2.55779393e-06
1.8061823e-05  	-1.82622697e-03	2.55768219e-06
1.8062081e-05  	-1.82614525e-03	2.55757042e-06
1.8062339e-05  	-1.82606353e-03	2.55745860e-06
1.8062598e-05  	-1.82598181e-03	2.55734677e-06
1.8062856e-05  	-1.82590012e-03	2.55723493e-06
1.8063114e-05  	-1.82581844e-03	2.55712307e-06
1.8063372e-05  	-1.82573677e-03	2.55701120e-06
1.806363e-05   	-1.82565514e-03	2.55689931e-06
1.8063888e-05  	-1.82557352e-03	2.55678741e-06
1.8064146e-05  	-1.82549192e-03	2.55667547e-06
1.8064404e-05  	-1.82541033e-03	2.55656349e-06
1.8064663e-05  	-1.82532874e-03	2.55645146e-06
1.8064921e-05  	-1.82524716e-03	2.55633938e-06
1.8065179e-05  	-1.82516560e-03	2.55622726e-06
1.8065437e-05  	-1.82508403e-03	2.55611508e-06
1.8065695e-05  	-1.82500249e-03	2.55600285e-06
1.8065953e-05  	-1.82492095e-03	2.55589058e-06
1.8066211e-05  	-1.82483943e-03	2.55577825e-06
1.8066469e-05  	-1.82475794e-03	2.55566590e-06
1.8066728e-05  	-1.82467649e-03	2.55555354e-06
1.8066986e-05  	-1.82459510e-03	2.55544117e-06
1.8067244e-05  	-1.82451378e-03	2.55532883e-06
1.8067502e-05  	-1.82443255e-03	2.55521653e-06
1.806776e-05   	-1.82435142e-03	2.55510428e-06
1.8068018e-05  	-1.82427039e-03	2.55499209e-06
1.8068276e-05  	-1.82418948e-03	2.55487999e-06
1.8068535e-05  	-1.82410872e-03	2.55476799e-06
1.8068793e-05  	-1.82402810e-03	2.55465612e-06
1.8069051e-05  	-1.82394764e-03	2.55454438e-06
1.8069309e-05  	-1.82386734e-03	2.55443277e-06
1.8069567e-05  	-1.82378723e-03	2.55432131e-06
1.8069825e-05  	-1.82370729e-03	2.55421001e-06
1.8070083e-05  	-1.82362754e-03	2.55409887e-06
1.8070342e-05  	-1.82354796e-03	2.55398790e-06
1.80706e-05    	-1.82346858e-03	2.55387710e-06
1.8070858e-05  	-1.82338940e-03	2.55376647e-06
1.8071116e-05  	-1.82331043e-03	2.55365604e-06
1.8071374e-05  	-1.82323167e-03	2.55354579e-06
1.8071632e-05  	-1.82315314e-03	2.55343576e-06
1.807189e-05   	-1.82307485e-03	2.55332594e-06
1.8072149e-05  	-1.82299681e-03	2.55321635e-06
1.8072407e-05  	-1.82291904e-03	2.55310700e-06
1.8072665e-05  	-1.82284155e-03	2.55299791e-06
1.8072923e-05  	-1.82276435e-03	2.55288910e-06
1.8073181e-05  	-1.82268746e-03	2.55278057e-06
1.8073439e-05  	-1.82261088e-03	2.55267235e-06
1.8073698e-05  	-1.82253464e-03	2.55256445e-06
1.8073956e-05  	-1.82245874e-03	2.55245688e-06
1.8074214e-05  	-1.82238320e-03	2.55234967e-06
1.8074472e-05  	-1.82230804e-03	2.55224284e-06
1.807473e-05   	-1.82223326e-03	2.55213639e-06
1.8074988e-05  	-1.82215890e-03	2.55203037e-06
1.8075246e-05  	-1.82208497e-03	2.55192479e-06
1.8075504e-05  	-1.82201146e-03	2.55181965e-06
1.8075763e-05  	-1.82193841e-03	2.55171498e-06
1.8076021e-05  	-1.82186581e-03	2.55161079e-06
1.8076279e-05  	-1.82179369e-03	2.55150711e-06
1.8076537e-05  	-1.82172206e-03	2.55140394e-06
1.8076795e-05  	-1.82165094e-03	2.55130131e-06
1.8077053e-05  	-1.82158034e-03	2.55119925e-06
1.8077311e-05  	-1.82151028e-03	2.55109777e-06
1.8077569e-05  	-1.82144080e-03	2.55099692e-06
1.8077827e-05  	-1.82137189e-03	2.55089668e-06
1.8078086e-05  	-1.82130358e-03	2.55079710e-06
1.8078344e-05  	-1.82123589e-03	2.55069821e-06
1.8078602e-05  	-1.82116885e-03	2.55060002e-06
1.807886e-05   	-1.82110247e-03	2.55050258e-06
1.8079118e-05  	-1.82103679e-03	2.55040591e-06
1.8079376e-05  	-1.82097182e-03	2.55031004e-06
1.8079634e-05  	-1.82090759e-03	2.55021500e-06
1.8079892e-05  	-1.82084410e-03	2.55012083e-06
1.808015e-05   	-1.82078137e-03	2.55002752e-06
1.8080408e-05  	-1.82071943e-03	2.54993510e-06
1.8080667e-05  	-1.82065828e-03	2.54984360e-06
1.8080925e-05  	-1.82059795e-03	2.54975306e-06
1.8081183e-05  	-1.82053846e-03	2.54966349e-06
1.8081441e-05  	-1.82047982e-03	2.54957492e-06
1.8081699e-05  	-1.82042207e-03	2.54948739e-06
1.8081957e-05  	-1.82036524e-03	2.54940093e-06
1.8082215e-05  	-1.82030933e-03	2.54931557e-06
1.8082473e-05  	-1.82025438e-03	2.54923134e-06
1.8082731e-05  	-1.82020039e-03	2.54914825e-06
1.8082989e-05  	-1.82014738e-03	2.54906634e-06
1.8083247e-05  	-1.82009539e-03	2.54898563e-06
1.8083505e-05  	-1.82004442e-03	2.54890617e-06
1.8083763e-05  	-1.81999451e-03	2.54882799e-06
1.8084021e-05  	-1.81994568e-03	2.54875109e-06
1.8084279e-05  	-1.81989794e-03	2.54867552e-06
1.8084537e-05  	-1.81985132e-03	2.54860132e-06
1.8084795e-05  	-1.81980587e-03	2.54852854e-06
1.8085053e-05  	-1.81976159e-03	2.54845719e-06
1.8085311e-05  	-1.81971850e-03	2.54838730e-06
1.8085569e-05  	-1.81967662e-03	2.54831890e-06
1.8085827e-05  	-1.81963598e-03	2.54825202e-06
1.8086085e-05  	-1.81959660e-03	2.54818670e-06
1.8086343e-05  	-1.81955851e-03	2.54812298e-06
1.8086602e-05  	-1.81952175e-03	2.54806090e-06
1.808686e-05   	-1.81948636e-03	2.54800052e-06
1.8087118e-05  	-1.81945237e-03	2.54794188e-06
1.8087376e-05  	-1.81941980e-03	2.54788501e-06
1.8087634e-05  	-1.81938869e-03	2.54782995e-06
1.8087891e-05  	-1.81935905e-03	2.54777673e-06
1.8088149e-05  	-1.81933092e-03	2.54772540e-06
1.8088407e-05  	-1.81930431e-03	2.54767599e-06
1.8088665e-05  	-1.81927924e-03	2.54762852e-06
1.8088923e-05  	-1.81925575e-03	2.54758304e-06
1.8089181e-05  	-1.81923387e-03	2.54753958e-06
1.8089439e-05  	-1.81921362e-03	2.54749820e-06
1.8089697e-05  	-1.81919503e-03	2.54745892e-06
1.8089955e-05  	-1.81917813e-03	2.54742179e-06
1.8090213e-05  	-1.81916293e-03	2.54738684e-06
1.8090471e-05  	-1.81914948e-03	2.54735416e-06
1.8090729e-05  	-1.81913782e-03	2.54732377e-06
1.8090987e-05  	-1.81912797e-03	2.54729571e-06
1.8091245e-05  	-1.81911997e-03	2.54727000e-06
1.8091503e-05  	-1.81911384e-03	2.54724670e-06
1.8091761e-05  	-1.81910961e-03	2.54722593e-06
1.8092019e-05  	-1.81910730e-03	2.54720764e-06
1.8092277e-05  	-1.81910694e-03	2.54719184e-06
1.8092535e-05  	-1.81910854e-03	2.54717858e-06
1.8092793e-05  	-1.81911214e-03	2.54716790e-06
1.8093051e-05  	-1.81911773e-03	2.54715982e-06
1.8093309e-05  	-1.81912536e-03	2.54715438e-06
1.8093566e-05  	-1.81913505e-03	2.54715163e-06
1.8093824e-05  	-1.81914683e-03	2.54715162e-06
1.8094082e-05  	-1.81916073e-03	2.54715439e-06
1.809434e-05   	-1.81917676e-03	2.54715997e-06
1.8094598e-05  	-1.81919496e-03	2.54716841e-06
1.8094856e-05  	-1.81921535e-03	2.54717972e-06
1.8095114e-05  	-1.81923794e-03	2.54719398e-06
1.8095372e-05  	-1.81926278e-03	2.54721120e-06
1.809563e-05   	-1.81928987e-03	2.54723141e-06
1.8095888e-05  	-1.81931923e-03	2.54725462e-06
1.8096145e-05  	-1.81935090e-03	2.54728091e-06
1.8096403e-05  	-1.81938490e-03	2.54731029e-06
1.8096661e-05  	-1.81942125e-03	2.54734285e-06
1.8096919e-05  	-1.81945999e-03	2.54737859e-06
1.8097177e-05  	-1.81950111e-03	2.54741758e-06
1.8097435e-05  	-1.81954466e-03	2.54745989e-06
1.8097693e-05  	-1.81959067e-03	2.54750552e-06
1.8097951e-05  	-1.81963914e-03	2.54755448e-06
1.8098208e-05  	-1.81969010e-03	2.54760681e-06
1.8098466e-05  	-1.81974358e-03	2.54766256e-06
1.8098724e-05  	-1.81979958e-03	2.54772173e-06
1.8098982e-05  	-1.81985813e-03	2.54778437e-06
1.809924e-05   	-1.81991924e-03	2.54785051e-06
1.8099498e-05  	-1.81998292e-03	2.54792016e-06
1.8099755e-05  	-1.82004919e-03	2.54799335e-06
1.8100013e-05  	-1.82011806e-03	2.54807009e-06
1.8100271e-05  	-1.82018951e-03	2.54815039e-06
1.8100529e-05  	-1.82026359e-03	2.54823430e-06
1.8100787e-05  	-1.82034030e-03	2.54832183e-06
1.8101045e-05  	-1.82041964e-03	2.54841302e-06
1.8101302e-05  	-1.82050164e-03	2.54850789e-06
1.810156e-05   	-1.82058632e-03	2.54860647e-06
1.8101818e-05  	-1.82067369e-03	2.54870878e-06
1.8102076e-05  	-1.82076376e-03	2.54881484e-06
1.8102333e-05  	-1.82085650e-03	2.54892463e-06
1.8102591e-05  	-1.82095191e-03	2.54903815e-06
1.8102849e-05  	-1.82104995e-03	2.54915538e-06
1.8103107e-05  	-1.82115059e-03	2.54927630e-06
1.8103364e-05  	-1.82125384e-03	2.54940091e-06
1.8103622e-05  	-1.82135967e-03	2.54952919e-06
1.810388e-05   	-1.82146805e-03	2.54966107e-06
1.8104138e-05  	-1.82157899e-03	2.54979664e-06
1.8104395e-05  	-1.82169248e-03	2.54993585e-06
1.8104653e-05  	-1.82180851e-03	2.55007868e-06
1.8104911e-05  	-1.82192707e-03	2.55022517e-06
1.8105168e-05  	-1.82204814e-03	2.55037530e-06
1.8105426e-05  	-1.82217175e-03	2.55052909e-06
1.8105684e-05  	-1.82229787e-03	2.55068652e-06
1.8105941e-05  	-1.82242654e-03	2.55084762e-06
1.8106199e-05  	-1.82255775e-03	2.55101241e-06
1.8106457e-05  	-1.82269143e-03	2.55118079e-06
1.8106714e-05  	-1.82282756e-03	2.55135272e-06
1.8106972e-05  	-1.82296608e-03	2.55152810e-06
1.810723e-05   	-1.82310698e-03	2.55170693e-06
1.8107487e-05  	-1.82325016e-03	2.55188912e-06
1.8107745e-05  	-1.82339561e-03	2.55207467e-06
1.8108003e-05  	-1.82354332e-03	2.55226351e-06
1.810826e-05   	-1.82369325e-03	2.55245565e-06
1.8108518e-05  	-1.82384544e-03	2.55265108e-06
1.8108775e-05  	-1.82399983e-03	2.55284979e-06
1.8109033e-05  	-1.82415637e-03	2.55305176e-06
1.810929e-05   	-1.82431494e-03	2.55325673e-06
1.8109548e-05  	-1.82447554e-03	2.55346468e-06
1.8109806e-05  	-1.82463809e-03	2.55367560e-06
1.8110063e-05  	-1.82480252e-03	2.55388939e-06
1.8110321e-05  	-1.82496881e-03	2.55410598e-06
1.8110578e-05  	-1.82513695e-03	2.55432539e-06
1.8110836e-05  	-1.82530696e-03	2.55454763e-06
1.8111093e-05  	-1.82547880e-03	2.55477270e-06
1.8111351e-05  	-1.82565251e-03	2.55500063e-06
1.8111608e-05  	-1.82582812e-03	2.55523148e-06
1.8111866e-05  	-1.82600562e-03	2.55546524e-06
1.8112123e-05  	-1.82618501e-03	2.55570193e-06
1.8112381e-05  	-1.82636627e-03	2.55594150e-06
1.8112638e-05  	-1.82654938e-03	2.55618394e-06
1.8112895e-05  	-1.82673435e-03	2.55642925e-06
1.8113153e-05  	-1.82692113e-03	2.55667736e-06
1.811341e-05   	-1.82710968e-03	2.55692824e-06
1.8113668e-05  	-1.82730001e-03	2.55718189e-06
1.8113925e-05  	-1.82749209e-03	2.55743823e-06
1.8114182e-05  	-1.82768588e-03	2.55769728e-06
1.811444e-05   	-1.82788140e-03	2.55795901e-06
1.8114697e-05  	-1.82807859e-03	2.55822335e-06
1.8114955e-05  	-1.82827748e-03	2.55849032e-06
1.8115212e-05  	-1.82847803e-03	2.55875992e-06
1.8115469e-05  	-1.82868025e-03	2.55903213e-06
1.8115726e-05  	-1.82888416e-03	2.55930697e-06
1.8115984e-05  	-1.82908977e-03	2.55958448e-06
1.8116241e-05  	-1.82929705e-03	2.55986463e-06
1.8116498e-05  	-1.82950599e-03	2.56014735e-06
1.8116755e-05  	-1.82971659e-03	2.56043266e-06
1.8117013e-05  	-1.82992884e-03	2.56072059e-06
1.811727e-05   	-1.83014280e-03	2.56101127e-06
1.8117527e-05  	-1.83035842e-03	2.56130463e-06
1.8117784e-05  	-1.83057570e-03	2.56160054e-06
1.8118041e-05  	-1.83079465e-03	2.56189905e-06
1.8118299e-05  	-1.83101527e-03	2.56220019e-06
1.8118556e-05  	-1.83123753e-03	2.56250384e-06
1.8118813e-05  	-1.83146145e-03	2.56281013e-06
1.811907e-05   	-1.83168703e-03	2.56311899e-06
1.8119327e-05  	-1.83191431e-03	2.56343043e-06
1.8119584e-05  	-1.83214325e-03	2.56374439e-06
1.8119841e-05  	-1.83237386e-03	2.56406092e-06
1.8120098e-05  	-1.83260614e-03	2.56438004e-06
1.8120355e-05  	-1.83284009e-03	2.56470162e-06
1.8120612e-05  	-1.83307573e-03	2.56502573e-06
1.8120869e-05  	-1.83331301e-03	2.56535229e-06
1.8121126e-05  	-1.83355201e-03	2.56568140e-06
1.8121383e-05  	-1.83379267e-03	2.56601297e-06
1.812164e-05   	-1.83403508e-03	2.56634719e-06
1.8121897e-05  	-1.83427919e-03	2.56668393e-06
1.8122154e-05  	-1.83452509e-03	2.56702329e-06
1.8122411e-05  	-1.83477275e-03	2.56736520e-06
1.8122668e-05  	-1.83502219e-03	2.56770969e-06
1.8122925e-05  	-1.83527340e-03	2.56805680e-06
1.8123182e-05  	-1.83552642e-03	2.56840670e-06
1.8123438e-05  	-1.83578120e-03	2.56875914e-06
1.8123695e-05  	-1.83603776e-03	2.56911434e-06
1.8123952e-05  	-1.83629611e-03	2.56947202e-06
1.8124209e-05  	-1.83655625e-03	2.56983222e-06
1.8124465e-05  	-1.83681824e-03	2.57019502e-06
1.8124722e-05  	-1.83708207e-03	2.57056044e-06
1.8124979e-05  	-1.83734775e-03	2.57092860e-06
1.8125236e-05  	-1.83761531e-03	2.57129945e-06
1.8125492e-05  	-1.83788474e-03	2.57167290e-06
1.8125749e-05  	-1.83815612e-03	2.57204937e-06
1.8126005e-05  	-1.83842939e-03	2.57242843e-06
1.8126262e-05  	-1.83870460e-03	2.57281013e-06
1.8126519e-05  	-1.83898177e-03	2.57319462e-06
1.8126775e-05  	-1.83926090e-03	2.57358177e-06
1.8127032e-05  	-1.83954204e-03	2.57397157e-06
1.8127288e-05  	-1.83982516e-03	2.57436413e-06
1.8127545e-05  	-1.84011025e-03	2.57475933e-06
1.8127801e-05  	-1.84039737e-03	2.57515745e-06
1.8128057e-05  	-1.84068652e-03	2.57555836e-06
1.8128314e-05  	-1.84097776e-03	2.57596234e-06
1.812857e-05   	-1.84127104e-03	2.57636907e-06
1.8128827e-05  	-1.84156640e-03	2.57677858e-06
1.8129083e-05  	-1.84186382e-03	2.57719085e-06
1.8129339e-05  	-1.84216338e-03	2.57760600e-06
1.8129595e-05  	-1.84246504e-03	2.57802393e-06
1.8129852e-05  	-1.84276883e-03	2.57844471e-06
1.8130108e-05  	-1.84307473e-03	2.57886830e-06
1.8130364e-05  	-1.84338284e-03	2.57929483e-06
1.813062e-05   	-1.84369311e-03	2.57972421e-06
1.8130876e-05  	-1.84400558e-03	2.58015651e-06
1.8131132e-05  	-1.84432026e-03	2.58059175e-06
1.8131388e-05  	-1.84463722e-03	2.58103016e-06
1.8131644e-05  	-1.84495638e-03	2.58147151e-06
1.81319e-05    	-1.84527779e-03	2.58191593e-06
1.8132156e-05  	-1.84560141e-03	2.58236320e-06
1.8132412e-05  	-1.84592726e-03	2.58281337e-06
1.8132668e-05  	-1.84625537e-03	2.58326645e-06
1.8132924e-05  	-1.84658574e-03	2.58372244e-06
1.813318e-05   	-1.84691832e-03	2.58418150e-06
1.8133436e-05  	-1.84725316e-03	2.58464381e-06
1.8133692e-05  	-1.84759028e-03	2.58510905e-06
1.8133947e-05  	-1.84792968e-03	2.58557722e-06
1.8134203e-05  	-1.84827139e-03	2.58604839e-06
1.8134459e-05  	-1.84861545e-03	2.58652259e-06
1.8134715e-05  	-1.84896184e-03	2.58699992e-06
1.813497e-05   	-1.84931053e-03	2.58748036e-06
1.8135226e-05  	-1.84966157e-03	2.58796390e-06
1.8135481e-05  	-1.85001494e-03	2.58845050e-06
1.8135737e-05  	-1.85037063e-03	2.58894006e-06
1.8135993e-05  	-1.85072866e-03	2.58943262e-06
1.8136248e-05  	-1.85108901e-03	2.58992817e-06
1.8136503e-05  	-1.85145172e-03	2.59042684e-06
1.8136759e-05  	-1.85181675e-03	2.59092850e-06
1.8137014e-05  	-1.85218410e-03	2.59143315e-06
1.813727e-05   	-1.85255379e-03	2.59194079e-06
1.8137525e-05  	-1.85292585e-03	2.59245139e-06
1.813778e-05   	-1.85330017e-03	2.59296497e-06
1.8138035e-05  	-1.85367677e-03	2.59348152e-06
1.8138291e-05  	-1.85405568e-03	2.59400118e-06
1.8138546e-05  	-1.85443694e-03	2.59452400e-06
1.8138801e-05  	-1.85482051e-03	2.59504980e-06
1.8139056e-05  	-1.85520641e-03	2.59557860e-06
1.8139311e-05  	-1.85559462e-03	2.59611037e-06
1.8139566e-05  	-1.85598511e-03	2.59664510e-06
1.8139821e-05  	-1.85637790e-03	2.59718282e-06
1.8140076e-05  	-1.85677295e-03	2.59772345e-06
1.8140331e-05  	-1.85717023e-03	2.59826701e-06
1.8140586e-05  	-1.85756978e-03	2.59881349e-06
1.8140841e-05  	-1.85797153e-03	2.59936281e-06
1.8141096e-05  	-1.85837549e-03	2.59991502e-06
1.814135e-05   	-1.85878162e-03	2.60047013e-06
1.8141605e-05  	-1.85918993e-03	2.60102811e-06
1.814186e-05   	-1.85960042e-03	2.60158901e-06
1.8142115e-05  	-1.86001305e-03	2.60215278e-06
1.8142369e-05  	-1.86042782e-03	2.60271932e-06
1.8142624e-05  	-1.86084473e-03	2.60328866e-06
1.8142878e-05  	-1.86126373e-03	2.60386073e-06
1.8143133e-05  	-1.86168480e-03	2.60443553e-06
1.8143387e-05  	-1.86210789e-03	2.60501300e-06
1.8143642e-05  	-1.86253304e-03	2.60559315e-06
1.8143896e-05  	-1.86296020e-03	2.60617596e-06
1.8144151e-05  	-1.86338937e-03	2.60676147e-06
1.8144405e-05  	-1.86382050e-03	2.60734983e-06
1.8144659e-05  	-1.86425358e-03	2.60794092e-06
1.8144913e-05  	-1.86468860e-03	2.60853459e-06
1.8145168e-05  	-1.86512552e-03	2.60913086e-06
1.8145422e-05  	-1.86556429e-03	2.60972961e-06
1.8145676e-05  	-1.86600494e-03	2.61033087e-06
1.814593e-05   	-1.86644734e-03	2.61093446e-06
1.8146184e-05  	-1.86689154e-03	2.61154066e-06
1.8146438e-05  	-1.86733754e-03	2.61214953e-06
1.8146692e-05  	-1.86778535e-03	2.61276099e-06
1.8146946e-05  	-1.86823494e-03	2.61337479e-06
1.81472e-05    	-1.86868613e-03	2.61399109e-06
1.8147454e-05  	-1.86913898e-03	2.61460974e-06
1.8147708e-05  	-1.86959340e-03	2.61523053e-06
1.8147961e-05  	-1.87004941e-03	2.61585356e-06
1.8148215e-05  	-1.87050701e-03	2.61647880e-06
1.8148469e-05  	-1.87096613e-03	2.61710618e-06
1.8148723e-05  	-1.87142673e-03	2.61773565e-06
1.8148976e-05  	-1.87188881e-03	2.61836722e-06
1.814923e-05   	-1.87235223e-03	2.61900073e-06
1.8149483e-05  	-1.87281704e-03	2.61963621e-06
1.8149737e-05  	-1.87328322e-03	2.62027368e-06
1.814999e-05   	-1.87375074e-03	2.62091310e-06
1.8150244e-05  	-1.87421959e-03	2.62155443e-06
1.8150497e-05  	-1.87468982e-03	2.62219766e-06
1.815075e-05   	-1.87516129e-03	2.62284269e-06
1.8151004e-05  	-1.87563400e-03	2.62348955e-06
1.8151257e-05  	-1.87610793e-03	2.62413821e-06
1.815151e-05   	-1.87658309e-03	2.62478867e-06
1.8151763e-05  	-1.87705941e-03	2.62544086e-06
1.8152016e-05  	-1.87753682e-03	2.62609464e-06
1.815227e-05   	-1.87801534e-03	2.62675010e-06
1.8152523e-05  	-1.87849498e-03	2.62740719e-06
1.8152776e-05  	-1.87897565e-03	2.62806584e-06
1.8153029e-05  	-1.87945737e-03	2.62872601e-06
1.8153281e-05  	-1.87994003e-03	2.62938757e-06
1.8153534e-05  	-1.88042371e-03	2.63005059e-06
1.8153787e-05  	-1.88090835e-03	2.63071500e-06
1.815404e-05   	-1.88139390e-03	2.63138082e-06
1.8154293e-05  	-1.88188042e-03	2.63204811e-06
1.8154545e-05  	-1.88236775e-03	2.63271676e-06
1.8154798e-05  	-1.88285599e-03	2.63338666e-06
1.8155051e-05  	-1.88334503e-03	2.63405776e-06
1.8155303e-05  	-1.88383492e-03	2.63473008e-06
1.8155556e-05  	-1.88432559e-03	2.63540361e-06
1.8155808e-05  	-1.88481698e-03	2.63607815e-06
1.8156061e-05  	-1.88530912e-03	2.63675379e-06
1.8156313e-05  	-1.88580202e-03	2.63743052e-06
1.8156566e-05  	-1.88629568e-03	2.63810836e-06
1.8156818e-05  	-1.88679010e-03	2.63878741e-06
1.815707e-05   	-1.88728514e-03	2.63946747e-06
1.8157323e-05  	-1.88778089e-03	2.64014852e-06
1.8157575e-05  	-1.88827730e-03	2.64083051e-06
1.8157827e-05  	-1.88877437e-03	2.64151341e-06
1.8158079e-05  	-1.88927216e-03	2.64219713e-06
1.8158331e-05  	-1.88977066e-03	2.64288179e-06
1.8158583e-05  	-1.89026982e-03	2.64356737e-06
1.8158835e-05  	-1.89076960e-03	2.64425386e-06
1.8159087e-05  	-1.89127000e-03	2.64494123e-06
1.8159339e-05  	-1.89177095e-03	2.64562940e-06
1.8159591e-05  	-1.89227248e-03	2.64631848e-06
1.8159843e-05  	-1.89277461e-03	2.64700842e-06
1.8160095e-05  	-1.89327731e-03	2.64769919e-06
1.8160346e-05  	-1.89378057e-03	2.64839082e-06
1.8160598e-05  	-1.89428439e-03	2.64908327e-06
1.816085e-05   	-1.89478878e-03	2.64977655e-06
1.8161101e-05  	-1.89529371e-03	2.65047063e-06
1.8161353e-05  	-1.89579912e-03	2.65116543e-06
1.8161604e-05  	-1.89630505e-03	2.65186103e-06
1.8161856e-05  	-1.89681149e-03	2.65255740e-06
1.8162107e-05  	-1.89731843e-03	2.65325454e-06
1.8162359e-05  	-1.89782592e-03	2.65395256e-06
1.816261e-05   	-1.89833382e-03	2.65465125e-06
1.8162861e-05  	-1.89884219e-03	2.65535066e-06
1.8163113e-05  	-1.89935103e-03	2.65605079e-06