0 	0 	0 	0
2.50453e-06 	-0.926856 	0.000152726 	-0.00460286
5.00907e-06 	-1.84293 	0.000222537 	0.0045899
7.83628e-06 	-2.72822 	0.000542098 	0.00893058
1.06635e-05 	-3.59786 	0.000825902 	0.00926478
1.3855e-05 	-4.4124 	0.00114959 	0.0223319
1.70464e-05 	-5.2122 	0.00165805 	0.0161808
2.06491e-05 	-5.89799 	0.00169918 	0.0348858
2.42517e-05 	-6.56941 	0.00221773 	0.0245343
2.83185e-05 	-7.10582 	0.00196807 	0.0415513
3.23853e-05 	-7.6188 	0.00244232 	0.0287803
3.69761e-05 	-8.02815 	0.00172712 	0.0377665
4.15668e-05 	-8.39144 	0.00259275 	0.0230434
4.6749e-05 	-8.71217 	0.000228808 	0.023218
5.19313e-05 	-8.95856 	0.00169361 	0.00677403
5.77812e-05 	-9.21344 	-0.00324713 	0.00333129
6.36311e-05 	-9.38565 	-0.000691425 	-0.0120159
7.02346e-05 	-9.58018 	-0.0079269 	-0.011538
7.68382e-05 	-9.71075 	-0.00427963 	-0.0227438
8.42926e-05 	-9.85799 	-0.0132786 	-0.0154939
9.17469e-05 	-9.96568 	-0.00909734 	-0.02267
0.000100162 	-10.0885 	-0.0198172 	-0.0108859
0.000108576 	-10.1862 	-0.017549 	-0.0141733
0.000118075 	-10.3022 	-0.0315067 	-0.00395589
0.000127574 	-10.3938 	-0.0332671 	-0.00456446
0.000138297 	-10.5147 	-0.050463 	-0.000170357
0.00014902 	-10.6064 	-0.0557657 	0.00224101
0.000161124 	-10.7327 	-0.0742774 	-0.000639908
0.000173228 	-10.8289 	-0.0825003 	0.00220476
0.000186892 	-10.9563 	-0.102882 	-0.00212769
0.000200556 	-11.0586 	-0.11351 	9.35616e-05
0.00021598 	-11.1898 	-0.131132 	0.00137141
0.000231404 	-11.304 	-0.143049 	0.00346533
0.000248815 	-11.4363 	-0.162118 	0.0034055
0.000266227 	-11.5679 	-0.17721 	-0.000712699
0.000285881 	-11.6984 	-0.200417 	-0.00811623
0.000305536 	-11.8413 	-0.220434 	-0.0130032
0.000327723 	-11.967 	-0.240067 	-0.0187846
0.000349909 	-12.0913 	-0.259041 	-0.0150769
0.000374955 	-12.2023 	-0.27913 	-0.0106355
0.0004 	-12.3026 	-0.292992 	0.000379465
0.000425 	-12.3864 	-0.311621 	0.00317088
0.00045 	-12.4693 	-0.322128 	0.00991065
0.000475 	-12.5249 	-0.33537 	0.00561587
0.0005 	-12.5789 	-0.341451 	0.00169379
0.000525 	-12.6271 	-0.354487 	0.000976561
0.00055 	-12.6662 	-0.358355 	-0.00506977
0.000575 	-12.7118 	-0.373227 	9.37308e-05
0.0006 	-12.7451 	-0.381646 	-0.000933535
0.000625 	-12.7766 	-0.398352 	0.00613321
0.00065 	-12.7931 	-0.408864 	0.0105214
0.000675 	-12.8086 	-0.425917 	0.0145657
0.0007 	-12.8121 	-0.435843 	0.0204254
0.000725 	-12.8165 	-0.45067 	0.0189625
0.00075 	-12.814 	-0.45715 	0.0170217
0.000775 	-12.8219 	-0.477201 	0.0153108
0.0008 	-12.816 	-0.485386 	0.0104489
0.000825 	-12.8184 	-0.509301 	0.00872971
0.00085 	-12.803 	-0.520789 	0.0103774
0.000875 	-12.79 	-0.540754 	0.00448823
0.0009 	-12.7632 	-0.547121 	0.00678975
0.000925 	-12.7501 	-0.561661 	-0.00281523
0.00095 	-12.7242 	-0.560274 	-0.00630794
0.000975 	-12.7309 	-0.571642 	-0.0111464
0.001 	-12.7261 	-0.565469 	-0.0184369
0.001025 	-12.7404 	-0.5788 	-0.0121096
0.00105 	-12.7465 	-0.576791 	-0.013938
0.001075 	-12.7481 	-0.592077 	-0.0119071
0.0011 	-12.7384 	-0.592392 	-0.0125478
0.001125 	-12.7353 	-0.606281 	-0.015773
0.00115 	-12.7119 	-0.605082 	-0.0173633
0.001175 	-12.71 	-0.617513 	-0.0151112
0.0012 	-12.6851 	-0.614603 	-0.0130814
0.001225 	-12.6847 	-0.627883 	-0.0081942
0.00125 	-12.664 	-0.623543 	-0.00621208
0.001275 	-12.6602 	-0.639744 	-0.00196007
0.0013 	-12.641 	-0.636641 	-0.000423948
0.001325 	-12.6312 	-0.65168 	-0.000324829
0.00135 	-12.6158 	-0.647103 	-0.00113143
0.001375 	-12.6067 	-0.658682 	0.000140086
0.0014 	-12.5942 	-0.653402 	-0.00132151
0.001425 	-12.5899 	-0.667879 	0.00124099
0.00145 	-12.575 	-0.667555 	0.00113357
0.001475 	-12.571 	-0.681378 	4.1286e-05
0.0015 	-12.5564 	-0.681578 	-0.000340382
0.001525 	-12.5443 	-0.69527 	-0.00434848
0.00155 	-12.5317 	-0.693582 	-0.00609139
0.001575 	-12.5182 	-0.707203 	-0.00869352
0.0016 	-12.5108 	-0.703712 	-0.00911459
0.001625 	-12.4935 	-0.714084 	-0.00801816
0.00165 	-12.485 	-0.709829 	-0.00703425
0.001675 	-12.4606 	-0.71752 	-0.00724648
0.0017 	-12.4423 	-0.713773 	-0.00808853
0.001725 	-12.4186 	-0.719119 	-0.00821152
0.00175 	-12.3916 	-0.712669 	-0.00812399
0.001775 	-12.3755 	-0.717681 	-0.00433384
0.0018 	-12.3521 	-0.709079 	-0.00265192
0.001825 	-12.3447 	-0.715153 	0.000813538
0.00185 	-12.3337 	-0.706048 	-6.45079e-05
0.001875 	-12.3294 	-0.714902 	0.000984663
0.0019 	-12.3237 	-0.70687 	-0.00200981
0.001925 	-12.3249 	-0.719781 	0.000368217
0.00195 	-12.3201 	-0.714249 	0.00151013
0.001975 	-12.3201 	-0.728311 	0.00449982
0.002 	-12.312 	-0.723559 	0.0102982
0.002025 	-12.2931 	-0.731499 	0.0115487
0.00205 	-12.2741 	-0.72334 	0.0161032
0.002075 	-12.2441 	-0.725449 	0.0169913
0.0021 	-12.22 	-0.715018 	0.0171118
0.002125 	-12.2063 	-0.71696 	0.0194094
0.00215 	-12.1912 	-0.706833 	0.0182006
0.002175 	-12.1929 	-0.714084 	0.0176238
0.0022 	-12.1874 	-0.705098 	0.0163035
0.002225 	-12.1823 	-0.712185 	0.0116958
0.00225 	-12.1756 	-0.702588 	0.00940611
0.002275 	-12.1586 	-0.704678 	0.00694665
0.0023 	-12.1444 	-0.692688 	0.00456284
0.002325 	-12.1235 	-0.695112 	0.0047463
0.00235 	-12.1047 	-0.681657 	0.00346765
0.002375 	-12.0831 	-0.682892 	0.00263107
0.0024 	-12.065 	-0.667032 	0.000536881
0.002425 	-12.0514 	-0.666893 	0.000249753
0.00245 	-12.0392 	-0.650915 	-0.00342444
0.002475 	-12.0357 	-0.654685 	-0.0033087
0.0025 	-12.0338 	-0.640975 	-0.00692018
0.002525 	-12.029 	-0.647799 	-0.00709818
0.00255 	-12.0288 	-0.635631 	-0.00840013
0.002575 	-12.0176 	-0.642112 	-0.0077968
0.0026 	-12.0106 	-0.631416 	-0.00664125
0.002625 	-11.9937 	-0.633993 	-0.00470217
0.00265 	-11.9883 	-0.622196 	-0.00221424
0.002675 	-11.9706 	-0.622805 	-0.00264583
0.0027 	-11.9669 	-0.608436 	-0.00287792
0.002725 	-11.9564 	-0.60958 	-0.00474818
0.00275 	-11.9467 	-0.592214 	-0.00711945
0.002775 	-11.9474 	-0.590719 	-0.00245989
0.0028 	-11.9396 	-0.572341 	-0.000859613
0.002825 	-11.9368 	-0.571201 	0.00593997
0.00285 	-11.936 	-0.55647 	0.00821428
0.002875 	-11.922 	-0.555113 	0.00595193
0.0029 	-11.9216 	-0.543082 	0.00113342
0.002925 	-11.905 	-0.541004 	-0.00228913
0.00295 	-11.8924 	-0.52747 	-0.00604701
0.002975 	-11.8801 	-0.524845 	-0.00180821
0.003 	-11.8658 	-0.508279 	0.000934978
0.003025 	-11.8549 	-0.505143 	0.00389143
0.00305 	-11.8516 	-0.491473 	0.00437568
0.003075 	-11.8351 	-0.488606 	0.00608561
0.0031 	-11.8282 	-0.476873 	0.00684335
0.003125 	-11.8093 	-0.474446 	0.00984549
0.00315 	-11.7966 	-0.460904 	0.0119902
0.003175 	-11.7762 	-0.458792 	0.0122347
0.0032 	-11.7608 	-0.444071 	0.0119243
0.003225 	-11.7347 	-0.441347 	0.00980907
0.00325 	-11.7161 	-0.425768 	0.0077749
0.003275 	-11.6746 	-0.421172 	0.00510529
0.0033 	-11.6466 	-0.404918 	0.00157708
0.003325 	-11.5955 	-0.400772 	3.67107e-05
0.00335 	-11.5557 	-0.384489 	-0.00316078
0.003375 	-11.5012 	-0.383632 	-0.00496912
0.0034 	-11.458 	-0.370159 	-0.00619285
0.003425 	-11.3689 	-0.367982 	-0.0117526
0.00345 	-11.3065 	-0.354369 	-0.0138532
0.003475 	-11.1732 	-0.353937 	-0.0143678
0.0035 	-11.0789 	-0.337931 	-0.0119682
0.003525 	-10.9222 	-0.335085 	-0.0102919
0.00355 	-10.8105 	-0.317429 	-0.00353593
0.003575 	-10.6284 	-0.306739 	-0.00306831
0.0036 	-10.4866 	-0.286925 	0.00425051
0.00362505 	-10.2866 	-0.276064 	0.00588711
0.00365009 	-10.1299 	-0.256155 	0.00680209
0.00367228 	-9.92001 	-0.257706 	0.00609574
0.00369446 	-9.76622 	-0.240082 	0.00283808
0.00371412 	-9.54995 	-0.248642 	-0.00561312
0.00373377 	-9.38742 	-0.229847 	-0.00769542
0.00375118 	-9.17447 	-0.240563 	-0.0222817
0.0037686 	-9.0353 	-0.223934 	-0.0223512
0.00378402 	-8.83543 	-0.230998 	-0.0311181
0.00379944 	-8.7257 	-0.219411 	-0.0230709
0.00381311 	-8.54615 	-0.222595 	-0.0325019
0.00382677 	-8.44501 	-0.212312 	-0.0224652
0.00383888 	-8.26528 	-0.214019 	-0.0340532
0.00385098 	-8.17276 	-0.201398 	-0.0231459
0.0038617 	-7.9757 	-0.197455 	-0.0229851
0.00387243 	-7.87943 	-0.18133 	-0.011859
0.00388192 	-7.66091 	-0.177752 	0.000216287
0.00389142 	-7.53905 	-0.158621 	0.0126322
0.00389984 	-7.30611 	-0.158146 	0.0170632
0.00390825 	-7.17278 	-0.135047 	0.0275255
0.00391571 	-6.92039 	-0.136254 	0.0211905
0.00392316 	-6.78622 	-0.109781 	0.0144976
0.00392977 	-6.50574 	-0.109943 	0.0121124
0.00393637 	-6.35959 	-0.0828042 	-0.0118714
0.00394222 	-6.03911 	-0.0830229 	-0.00872212
0.00394807 	-5.86638 	-0.0596462 	-0.0357401
0.00395325 	-5.48524 	-0.0591244 	-0.0319661
0.00395843 	-5.26572 	-0.0413089 	-0.0546295
0.00396302 	-4.82156 	-0.0394278 	-0.0508707
0.00396761 	-4.54363 	-0.0262582 	-0.0685901
0.00397168 	-4.03454 	-0.0237824 	-0.0613517
0.00397575 	-3.69057 	-0.014617 	-0.0700193
0.00397935 	-3.12285 	-0.0125279 	-0.0601881
0.00398295 	-2.71335 	-0.00678293 	-0.0589394
0.00398615 	-2.1365 	-0.00564553 	-0.0506535
0.00398934 	-1.69763 	-0.00255433 	-0.0426481
0.00399216 	-1.18319 	-0.0020191 	-0.0364553
0.00399499 	-0.773475 	-0.000629158 	-0.0235126
0.0039975 	-0.354606 	-0.000428989 	-0.0164904
0.004 	0 	0 	0
